LAMMPS data file

1590 atoms
7 atom types
1000 bonds
1 bond types
500 angles
1 angle types

0.000000 31.928625 xlo xhi
0.000000 29.778000 ylo yhi
0.000000 100.000000 zlo zhi

Atoms

1 1 1 -0.8476 28.732844 9.655239 39.268567
2 1 2 0.4238 28.223087 9.314400 38.478645
3 1 2 0.4238 29.000674 8.886519 39.849374
4 2 1 -0.8476 23.520086 12.899611 39.336673
5 2 2 0.4238 23.052392 12.226303 38.764031
6 2 2 0.4238 24.007510 13.550799 38.754975
7 3 1 -0.8476 7.567312 7.441300 15.893824
8 3 2 0.4238 7.318561 7.078360 16.791820
9 3 2 0.4238 8.525793 7.726297 15.903342
10 4 1 -0.8476 5.803140 7.224436 19.836511
11 4 2 0.4238 5.675249 6.704327 20.680982
12 4 2 0.4238 5.219471 6.844039 19.119133
13 5 1 -0.8476 22.193865 11.494186 25.923407
14 5 2 0.4238 21.382227 11.727204 26.459081
15 5 2 0.4238 21.925320 10.940619 25.135088
16 6 1 -0.8476 26.453913 10.932080 12.762393
17 6 2 0.4238 27.342523 11.088994 13.193380
18 6 2 0.4238 25.771448 10.737563 13.466953
19 7 1 -0.8476 15.709301 25.231012 39.224296
20 7 2 0.4238 16.197754 25.913787 38.680943
21 7 2 0.4238 16.320857 24.862517 39.924447
22 8 1 -0.8476 8.630830 4.334126 18.547336
23 8 2 0.4238 9.235459 4.239765 17.756437
24 8 2 0.4238 7.783039 4.784270 18.266942
25 9 1 -0.8476 26.882593 2.295386 42.519298
26 9 2 0.4238 27.683122 1.984586 42.006894
27 9 2 0.4238 26.177012 2.602957 41.880896
28 10 1 -0.8476 6.397089 20.959385 34.034396
29 10 2 0.4238 6.901701 21.808780 33.879813
30 10 2 0.4238 6.060779 20.607773 33.160745
31 11 1 -0.8476 7.353945 17.955843 41.709361
32 11 2 0.4238 7.006583 17.132018 42.157303
33 11 2 0.4238 7.086397 18.761018 42.238617
34 12 1 -0.8476 18.164500 9.413219 20.676188
35 12 2 0.4238 18.371658 10.232308 21.211147
36 12 2 0.4238 17.832112 8.692803 21.284891
37 13 1 -0.8476 19.583933 8.940246 18.346453
38 13 2 0.4238 19.129867 8.154072 18.765685
39 13 2 0.4238 20.487704 9.061170 18.757032
40 14 1 -0.8476 21.125477 20.880559 11.264844
41 14 2 0.4238 21.857792 21.468995 11.607566
42 14 2 0.4238 20.721219 21.292774 10.448355
43 15 1 -0.8476 4.383609 20.670614 9.977389
44 15 2 0.4238 3.757609 19.953913 9.670040
45 15 2 0.4238 4.722330 20.447809 10.891515
46 16 1 -0.8476 8.358172 5.538041 38.496874
47 16 2 0.4238 7.784355 5.775172 39.280777
48 16 2 0.4238 9.310240 5.767461 38.699193
49 17 1 -0.8476 5.984622 4.205912 6.746335
50 17 2 0.4238 6.079504 5.198961 6.676671
51 17 2 0.4238 5.388033 3.875948 6.014758
52 18 1 -0.8476 12.596159 10.955310 34.321448
53 18 2 0.4238 12.183930 10.056695 34.171248
54 18 2 0.4238 12.964743 11.301354 33.458662
55 19 1 -0.8476 20.610969 14.498532 38.624205
56 19 2 0.4238 20.489424 13.793981 39.323372
57 19 2 0.4238 21.333616 14.219422 37.991845
58 20 1 -0.8476 18.603554 22.544366 21.926957
59 20 2 0.4238 18.657731 23.231209 21.202172
60 20 2 0.4238 18.349210 21.661813 21.531469
61 21 1 -0.8476 25.076427 26.412285 34.986814
62 21 2 0.4238 24.330768 25.876412 35.382836
63 21 2 0.4238 25.507203 26.963143 35.701648
64 22 1 -0.8476 22.298491 24.401784 32.963270
65 22 2 0.4238 21.860324 23.504405 32.911099
66 22 2 0.4238 22.237742 24.748457 33.899287
67 23 1 -0.8476 19.745458 24.982985 23.122807
68 23 2 0.4238 18.911464 25.266735 23.596030
69 23 2 0.4238 20.541994 25.226836 23.676039
70 24 1 -0.8476 22.540431 2.046002 16.691361
71 24 2 0.4238 21.621422 2.177875 16.319836
72 24 2 0.4238 22.509828 2.114559 17.688539
73 25 1 -0.8476 25.599417 7.610460 20.357265
74 25 2 0.4238 26.504150 7.735198 19.949958
75 25 2 0.4238 25.494260 8.233078 21.132693
76 26 1 -0.8476 14.550820 11.644774 39.033899
77 26 2 0.4238 14.435036 12.630836 39.153385
78 26 2 0.4238 14.263278 11.172053 39.866878
79 27 1 -0.8476 8.840899 20.732319 36.245601
80 27 2 0.4238 8.214345 20.891398 35.482630
81 27 2 0.4238 8.326457 20.397740 37.035162
82 28 1 -0.8476 19.519974 8.245842 5.029895
83 28 2 0.4238 18.713717 8.153814 5.614260
84 28 2 0.4238 20.334668 8.351155 5.600144
85 29 1 -0.8476 9.983045 7.105627 29.403367
86 29 2 0.4238 10.632413 7.262222 30.147544
87 29 2 0.4238 10.009477 7.878793 28.769714
88 30 1 -0.8476 20.949529 7.568008 40.163545
89 30 2 0.4238 21.543123 8.372448 40.186415
90 30 2 0.4238 21.384877 6.818258 40.661890
91 31 1 -0.8476 4.948926 5.470031 26.953814
92 31 2 0.4238 5.031475 5.310929 25.970008
93 31 2 0.4238 4.168192 6.069496 27.130156
94 32 1 -0.8476 26.155523 11.051913 39.122417
95 32 2 0.4238 26.223260 10.344961 39.826428
96 32 2 0.4238 25.192899 11.266177 38.956748
97 33 1 -0.8476 21.269987 24.635174 10.093480
98 33 2 0.4238 21.842711 25.241431 10.645241
99 33 2 0.4238 20.892841 23.913444 10.673882
100 34 1 -0.8476 17.375355 17.388522 27.048373
101 34 2 0.4238 18.319051 17.454304 27.372583
102 34 2 0.4238 17.232297 16.497525 26.617490
103 35 1 -0.8476 14.526624 12.958072 41.718792
104 35 2 0.4238 14.569959 13.718361 42.366930
105 35 2 0.4238 15.177526 12.249741 41.991911
106 36 1 -0.8476 20.908570 11.777807 22.291895
107 36 2 0.4238 20.572386 10.953779 22.747920
108 36 2 0.4238 20.778336 12.567333 22.891635
109 37 1 -0.8476 23.386098 7.725322 41.417509
110 37 2 0.4238 23.249325 7.013659 42.106588
111 37 2 0.4238 23.849629 8.507577 41.833701
112 38 1 -0.8476 23.409492 21.428714 22.216313
113 38 2 0.4238 23.726614 22.099061 21.545441
114 38 2 0.4238 22.424709 21.534982 22.353823
115 39 1 -0.8476 28.427859 10.420831 7.976262
116 39 2 0.4238 28.345972 10.864280 8.868813
117 39 2 0.4238 28.867191 9.529246 8.086100
118 40 1 -0.8476 23.678899 11.537980 12.560030
119 40 2 0.4238 24.190386 12.273685 12.116047
120 40 2 0.4238 23.142682 11.044475 11.875249
121 41 1 -0.8476 6.638963 13.849072 20.432074
122 41 2 0.4238 6.483868 13.198113 19.688974
123 41 2 0.4238 7.566437 13.734025 20.787821
124 42 1 -0.8476 19.872670 14.181787 6.194404
125 42 2 0.4238 19.104589 13.745244 6.662893
126 42 2 0.4238 19.663010 15.147082 6.038681
127 43 1 -0.8476 3.050278 22.505196 11.816775
128 43 2 0.4238 3.149201 23.496854 11.734130
129 43 2 0.4238 2.117981 22.241454 11.569265
130 44 1 -0.8476 22.921510 14.435681 29.247507
131 44 2 0.4238 22.117589 14.342012 28.660193
132 44 2 0.4238 23.750172 14.355532 28.693526
133 45 1 -0.8476 12.995891 16.939358 20.677493
134 45 2 0.4238 12.594240 17.307832 21.515887
135 45 2 0.4238 13.978217 17.126315 20.668371
136 46 1 -0.8476 19.850458 23.042596 36.531412
137 46 2 0.4238 19.423467 23.198445 37.422136
138 46 2 0.4238 19.193010 23.247251 35.806237
139 47 1 -0.8476 12.139257 26.124885 9.681196
140 47 2 0.4238 12.724395 25.551722 9.107525
141 47 2 0.4238 11.196662 25.794807 9.630562
142 48 1 -0.8476 23.927395 17.291633 6.100341
143 48 2 0.4238 23.064483 17.663513 6.442523
144 48 2 0.4238 23.943323 17.350723 5.102215
145 49 1 -0.8476 26.582889 13.601462 26.023401
146 49 2 0.4238 25.953527 13.074488 26.594542
147 49 2 0.4238 26.966957 13.008354 25.315789
148 50 1 -0.8476 22.544036 16.920796 28.351772
149 50 2 0.4238 23.342046 17.068615 27.767538
150 50 2 0.4238 21.750190 16.704791 27.783309
151 51 1 -0.8476 21.054427 14.260271 30.665523
152 51 2 0.4238 21.018294 15.259604 30.670688
153 51 2 0.4238 21.401396 13.934736 31.545091
154 52 1 -0.8476 16.019562 20.084839 18.156692
155 52 2 0.4238 16.037871 19.285882 17.555583
156 52 2 0.4238 16.154756 20.913636 17.613720
157 53 1 -0.8476 8.345047 10.150172 32.316168
158 53 2 0.4238 8.057395 11.104213 32.232120
159 53 2 0.4238 8.622738 9.805533 31.419445
160 54 1 -0.8476 6.525382 13.020653 8.550443
161 54 2 0.4238 5.664219 12.560822 8.767133
162 54 2 0.4238 6.609013 13.849541 9.103570
163 55 1 -0.8476 14.921120 9.443063 18.893755
164 55 2 0.4238 14.602844 9.340919 19.836234
165 55 2 0.4238 15.125301 10.405226 18.713330
166 56 1 -0.8476 18.303067 12.251533 36.203670
167 56 2 0.4238 18.838122 12.788309 36.856040
168 56 2 0.4238 18.563374 11.288408 36.271718
169 57 1 -0.8476 7.384181 16.573867 39.340585
170 57 2 0.4238 7.321731 16.410985 38.355917
171 57 2 0.4238 8.050123 17.298726 39.516946
172 58 1 -0.8476 14.234694 15.715628 36.999750
173 58 2 0.4238 15.016086 16.327519 36.877207
174 58 2 0.4238 13.542252 15.916380 36.306769
175 59 1 -0.8476 9.109322 20.903784 39.101647
176 59 2 0.4238 8.992969 20.770686 40.085897
177 59 2 0.4238 8.861438 21.842103 38.860586
178 60 1 -0.8476 28.438709 2.485955 23.918476
179 60 2 0.4238 28.119897 3.341488 23.510526
180 60 2 0.4238 29.005364 1.992781 23.258414
181 61 1 -0.8476 10.816582 11.937476 23.075884
182 61 2 0.4238 11.630525 12.381025 23.451067
183 61 2 0.4238 10.012724 12.501601 23.264501
184 62 1 -0.8476 24.238406 26.403908 15.950454
185 62 2 0.4238 24.700874 26.018910 16.749141
186 62 2 0.4238 23.489923 26.994852 16.251385
187 63 1 -0.8476 13.264027 23.169998 23.999029
188 63 2 0.4238 14.049596 23.333339 23.402202
189 63 2 0.4238 12.759000 24.023653 24.126392
190 64 1 -0.8476 26.768759 17.236044 7.603954
191 64 2 0.4238 26.168000 16.501673 7.288061
192 64 2 0.4238 27.130527 17.733206 6.815313
193 65 1 -0.8476 25.259233 13.517469 17.184186
194 65 2 0.4238 25.655524 13.123400 16.354932
195 65 2 0.4238 24.658298 12.846125 17.617976
196 66 1 -0.8476 3.555314 13.303029 26.034306
197 66 2 0.4238 4.539969 13.222082 26.188910
198 66 2 0.4238 3.092611 13.459029 26.906986
199 67 1 -0.8476 24.915358 11.319938 9.056639
200 67 2 0.4238 24.818781 11.817894 8.194831
201 67 2 0.4238 25.883829 11.144467 9.233480
202 68 1 -0.8476 2.772152 6.365806 15.283483
203 68 2 0.4238 2.155953 5.578231 15.278680
204 68 2 0.4238 3.077483 6.544424 16.218827
205 69 1 -0.8476 23.644674 10.454859 44.362384
206 69 2 0.4238 24.201390 9.694476 44.696876
207 69 2 0.4238 22.767303 10.461883 44.842146
208 70 1 -0.8476 26.190391 2.998432 26.964858
209 70 2 0.4238 27.160570 2.916232 27.192882
210 70 2 0.4238 26.086276 3.073378 25.973120
211 71 1 -0.8476 6.822621 13.959616 14.247814
212 71 2 0.4238 6.275931 14.788005 14.125740
213 71 2 0.4238 7.479365 14.099860 14.988773
214 72 1 -0.8476 4.069373 6.987834 36.410689
215 72 2 0.4238 4.689175 7.683643 36.773589
216 72 2 0.4238 3.339542 6.814077 37.071867
217 73 1 -0.8476 17.829750 26.371062 40.422429
218 73 2 0.4238 17.050063 26.988681 40.525560
219 73 2 0.4238 18.156278 26.092770 41.325720
220 74 1 -0.8476 21.950870 22.575505 28.473390
221 74 2 0.4238 20.972193 22.384045 28.547790
222 74 2 0.4238 22.120686 23.535265 28.697050
223 75 1 -0.8476 27.707647 12.226775 11.245757
224 75 2 0.4238 27.195639 12.536914 10.444719
225 75 2 0.4238 28.058259 11.304892 11.080826
226 76 1 -0.8476 3.118613 11.553148 36.884663
227 76 2 0.4238 3.126367 11.222356 37.828336
228 76 2 0.4238 2.665305 12.443721 36.847360
229 77 1 -0.8476 14.874789 8.449132 23.042385
230 77 2 0.4238 14.433333 8.337020 22.152133
231 77 2 0.4238 15.788370 8.835363 22.915123
232 78 1 -0.8476 21.052766 9.714437 13.280749
233 78 2 0.4238 20.151673 9.286474 13.350593
234 78 2 0.4238 21.357476 9.999982 14.189384
235 79 1 -0.8476 25.416384 23.078419 40.640482
236 79 2 0.4238 26.011714 22.520173 41.218360
237 79 2 0.4238 24.834238 23.651620 41.217151
238 80 1 -0.8476 12.548061 17.123247 13.702720
239 80 2 0.4238 11.833449 16.977581 14.386907
240 80 2 0.4238 13.307675 17.625525 14.115885
241 81 1 -0.8476 10.264477 26.091295 33.760857
242 81 2 0.4238 9.553653 26.053837 34.463229
243 81 2 0.4238 11.060717 26.579489 34.118164
244 82 1 -0.8476 21.281529 19.444106 13.608956
245 82 2 0.4238 21.560589 20.242724 14.142187
246 82 2 0.4238 21.129997 18.669618 14.223127
247 83 1 -0.8476 14.831863 2.981479 42.596010
248 83 2 0.4238 15.303504 3.745402 43.036437
249 83 2 0.4238 13.878336 3.231129 42.427304
250 84 1 -0.8476 4.638533 18.844594 16.312932
251 84 2 0.4238 3.858274 19.428403 16.088515
252 84 2 0.4238 5.323540 18.910266 15.587362
253 85 1 -0.8476 16.988091 18.836190 28.755049
254 85 2 0.4238 16.215946 18.713076 29.378455
255 85 2 0.4238 17.810499 19.051655 29.281567
256 86 1 -0.8476 19.679092 13.382113 20.491829
257 86 2 0.4238 19.659134 12.384487 20.557739
258 86 2 0.4238 19.247335 13.668344 19.636459
259 87 1 -0.8476 6.943358 3.693780 32.325068
260 87 2 0.4238 6.461647 2.841270 32.122135
261 87 2 0.4238 6.366877 4.470728 32.072042
262 88 1 -0.8476 22.368385 25.289188 17.479240
263 88 2 0.4238 22.480322 26.152545 17.971261
264 88 2 0.4238 22.010764 25.471460 16.563333
265 89 1 -0.8476 10.364380 12.014626 32.542836
266 89 2 0.4238 10.056490 12.857765 32.983655
267 89 2 0.4238 10.123303 11.231539 33.116121
268 90 1 -0.8476 25.378223 2.870583 19.137499
269 90 2 0.4238 25.929261 2.579897 18.355285
270 90 2 0.4238 24.844812 3.678665 18.887546
271 91 1 -0.8476 10.229323 3.185846 32.632007
272 91 2 0.4238 9.845740 2.424931 33.155336
273 91 2 0.4238 11.213253 3.243989 32.800828
274 92 1 -0.8476 7.515141 19.170975 30.723082
275 92 2 0.4238 7.964294 19.359858 29.849820
276 92 2 0.4238 6.531932 19.329932 30.633445
277 93 1 -0.8476 14.445793 11.551028 20.707426
278 93 2 0.4238 13.649640 11.489387 20.105478
279 93 2 0.4238 14.415828 12.413615 21.212447
280 94 1 -0.8476 23.986828 12.056245 28.075971
281 94 2 0.4238 24.789748 12.265990 28.633937
282 94 2 0.4238 23.157685 12.216003 28.611695
283 95 1 -0.8476 16.956942 7.144234 27.297645
284 95 2 0.4238 16.267114 7.766935 26.928348
285 95 2 0.4238 16.571871 6.224021 27.367852
286 96 1 -0.8476 25.767943 24.195794 21.194022
287 96 2 0.4238 24.895067 24.646286 21.006553
288 96 2 0.4238 26.062504 23.689399 20.383592
289 97 1 -0.8476 2.019230 19.125181 13.116293
290 97 2 0.4238 2.219814 18.898767 14.069447
291 97 2 0.4238 2.806810 19.589484 12.711151
292 98 1 -0.8476 6.684168 23.539429 6.133074
293 98 2 0.4238 7.111145 22.892717 6.765098
294 98 2 0.4238 6.383348 24.348942 6.637253
295 99 1 -0.8476 18.956636 25.461540 17.066300
296 99 2 0.4238 19.410149 26.256006 16.662380
297 99 2 0.4238 18.423261 25.750634 17.861244
298 100 1 -0.8476 3.051900 22.556998 17.408952
299 100 2 0.4238 2.249361 21.988445 17.228181
300 100 2 0.4238 3.604155 22.627818 16.578290
301 101 1 -0.8476 13.161218 9.647919 38.087550
302 101 2 0.4238 13.120907 8.863094 37.469144
303 101 2 0.4238 13.298686 10.484018 37.556473
304 102 1 -0.8476 2.262702 7.303965 29.050158
305 102 2 0.4238 2.951719 7.149735 29.758303
306 102 2 0.4238 2.313400 6.571980 28.370726
307 103 1 -0.8476 13.683504 21.694544 21.933478
308 103 2 0.4238 13.931655 20.997407 22.606101
309 103 2 0.4238 13.505697 21.258299 21.051392
310 104 1 -0.8476 15.004709 15.763825 10.090340
311 104 2 0.4238 15.070965 16.643756 9.619881
312 104 2 0.4238 15.097867 15.022601 9.425579
313 105 1 -0.8476 12.251514 16.497617 30.218581
314 105 2 0.4238 12.906846 15.827844 30.567787
315 105 2 0.4238 12.526136 16.785655 29.301184
316 106 1 -0.8476 9.106352 22.621057 41.272615
317 106 2 0.4238 8.314453 22.455911 41.860512
318 106 2 0.4238 9.932508 22.674529 41.833514
319 107 1 -0.8476 9.059921 16.999308 26.376269
320 107 2 0.4238 8.822800 17.849244 25.905756
321 107 2 0.4238 9.953272 16.680867 26.059220
322 108 1 -0.8476 13.819041 19.048949 7.124903
323 108 2 0.4238 13.813281 18.476279 7.944669
324 108 2 0.4238 13.434025 19.945912 7.342204
325 109 1 -0.8476 2.109932 20.541638 24.085144
326 109 2 0.4238 2.012310 19.549127 24.011712
327 109 2 0.4238 2.941976 20.757830 24.595990
328 110 1 -0.8476 6.685778 22.987423 30.288080
329 110 2 0.4238 6.089461 22.849661 29.497240
330 110 2 0.4238 6.197320 23.510096 30.986809
331 111 1 -0.8476 6.781045 15.255427 11.223437
332 111 2 0.4238 5.902449 14.792829 11.342064
333 111 2 0.4238 7.201299 15.407188 12.118063
334 112 1 -0.8476 10.083293 16.980261 21.960206
335 112 2 0.4238 10.504008 16.113308 22.227397
336 112 2 0.4238 9.993360 17.568719 22.763718
337 113 1 -0.8476 2.520654 10.251764 13.276118
338 113 2 0.4238 2.834556 9.957167 12.373523
339 113 2 0.4238 2.063009 11.137389 13.197182
340 114 1 -0.8476 13.438464 7.407177 13.671122
341 114 2 0.4238 13.539056 8.255413 14.191101
342 114 2 0.4238 12.590018 7.438727 13.142781
343 115 1 -0.8476 23.244794 11.446078 31.232149
344 115 2 0.4238 23.625332 11.895142 32.040562
345 115 2 0.4238 22.332874 11.094773 31.444253
346 116 1 -0.8476 8.354445 26.956509 23.346072
347 116 2 0.4238 8.692745 26.511306 24.175137
348 116 2 0.4238 9.056486 26.914774 22.635160
349 117 1 -0.8476 3.721052 25.609352 13.432188
350 117 2 0.4238 2.722898 25.619242 13.372262
351 117 2 0.4238 4.084296 26.474615 13.086682
352 118 1 -0.8476 22.248031 23.519859 13.341281
353 118 2 0.4238 21.924742 22.593084 13.532519
354 118 2 0.4238 22.347850 23.640894 12.353664
355 119 1 -0.8476 22.843772 12.749373 14.490058
356 119 2 0.4238 22.188911 13.241332 15.063760
357 119 2 0.4238 23.734560 12.728255 14.943988
358 120 1 -0.8476 23.994314 3.692678 37.834242
359 120 2 0.4238 24.628424 4.088827 38.498298
360 120 2 0.4238 23.263015 3.211528 38.317665
361 121 1 -0.8476 17.938862 22.005803 39.363400
362 121 2 0.4238 18.437132 21.607741 38.593157
363 121 2 0.4238 17.382497 22.771451 39.040535
364 122 1 -0.8476 6.960288 20.698487 19.981925
365 122 2 0.4238 6.941914 20.348441 20.918477
366 122 2 0.4238 6.250932 20.244759 19.442531
367 123 1 -0.8476 19.682403 5.637386 33.323885
368 123 2 0.4238 19.858876 5.337626 34.261435
369 123 2 0.4238 20.538368 5.938368 32.903487
370 124 1 -0.8476 9.286731 26.606180 39.103472
371 124 2 0.4238 9.558816 26.965821 39.996013
372 124 2 0.4238 8.384467 26.962949 38.861324
373 125 1 -0.8476 16.448704 10.529849 29.585402
374 125 2 0.4238 16.604551 11.338431 29.018032
375 125 2 0.4238 16.378633 9.721241 29.001242
376 126 1 -0.8476 5.319322 18.823524 28.217975
377 126 2 0.4238 6.316572 18.811448 28.291087
378 126 2 0.4238 5.014568 18.033859 27.685477
379 127 1 -0.8476 24.888776 6.685144 23.821751
380 127 2 0.4238 25.367701 7.418048 23.338550
381 127 2 0.4238 25.506239 5.908302 23.945261
382 128 1 -0.8476 8.844439 3.393024 21.266227
383 128 2 0.4238 8.006820 3.707299 20.819431
384 128 2 0.4238 9.627115 3.894715 20.897819
385 129 1 -0.8476 21.801451 9.173007 20.462736
386 129 2 0.4238 21.888760 10.120242 20.154316
387 129 2 0.4238 21.324058 9.151144 21.341154
388 130 1 -0.8476 5.622219 19.614238 7.300243
389 130 2 0.4238 6.226394 18.817676 7.278746
390 130 2 0.4238 6.025641 20.323045 7.878901
391 131 1 -0.8476 8.381527 4.041766 44.998403
392 131 2 0.4238 7.567801 4.109554 44.421121
393 131 2 0.4238 9.195122 3.973716 44.420966
394 132 1 -0.8476 17.640604 21.253431 9.246685
395 132 2 0.4238 16.840207 20.782774 8.875409
396 132 2 0.4238 18.464143 20.726174 9.037436
397 133 1 -0.8476 23.886608 24.758545 42.970501
398 133 2 0.4238 24.402733 24.933998 43.808851
399 133 2 0.4238 23.326634 25.557311 42.750496
400 134 1 -0.8476 15.140717 4.372775 37.134780
401 134 2 0.4238 15.700663 4.476721 37.956763
402 134 2 0.4238 15.598831 4.811544 36.361725
403 135 1 -0.8476 16.865490 13.767440 6.593143
404 135 2 0.4238 16.488477 12.886389 6.307465
405 135 2 0.4238 16.913539 14.380806 5.804808
406 136 1 -0.8476 3.578316 23.778025 40.241624
407 136 2 0.4238 3.813789 22.844223 39.972243
408 136 2 0.4238 3.465647 23.820170 41.234363
409 137 1 -0.8476 18.440090 19.135985 45.007262
410 137 2 0.4238 18.804072 19.563558 44.179796
411 137 2 0.4238 17.463955 18.955033 44.887192
412 138 1 -0.8476 21.192121 14.223605 17.212063
413 138 2 0.4238 20.547020 14.629123 16.564452
414 138 2 0.4238 20.687149 13.792913 17.960067
415 139 1 -0.8476 16.132390 24.386502 30.008214
416 139 2 0.4238 16.296486 25.281796 30.422368
417 139 2 0.4238 15.310967 23.979808 30.408045
418 140 1 -0.8476 6.743193 25.601553 30.171802
419 140 2 0.4238 7.721525 25.399395 30.127109
420 140 2 0.4238 6.510320 25.920210 31.090621
421 141 1 -0.8476 6.551955 10.517552 19.752685
422 141 2 0.4238 7.322616 10.539737 19.115825
423 141 2 0.4238 6.889156 10.625840 20.687869
424 142 1 -0.8476 8.350667 6.257899 30.618270
425 142 2 0.4238 8.997892 5.499021 30.546130
426 142 2 0.4238 8.238515 6.510094 31.579426
427 143 1 -0.8476 27.377818 13.657084 22.438747
428 143 2 0.4238 26.400430 13.649131 22.650053
429 143 2 0.4238 27.685049 12.724893 22.247360
430 144 1 -0.8476 27.114804 25.682683 22.239131
431 144 2 0.4238 26.993799 26.671119 22.147737
432 144 2 0.4238 27.851331 25.379721 21.634364
433 145 1 -0.8476 8.672140 17.174376 14.129854
434 145 2 0.4238 8.748979 16.355717 14.698971
435 145 2 0.4238 8.625581 17.983949 14.715025
436 146 1 -0.8476 12.472099 21.634876 33.120985
437 146 2 0.4238 12.003495 21.232642 33.907508
438 146 2 0.4238 12.619206 20.931773 32.425280
439 147 1 -0.8476 18.518608 18.156104 33.810632
440 147 2 0.4238 18.708873 18.989067 33.291043
441 147 2 0.4238 17.950219 18.379695 34.602429
442 148 1 -0.8476 19.291925 5.513961 38.438016
443 148 2 0.4238 20.032097 6.183499 38.500181
444 148 2 0.4238 19.123830 5.118142 39.340830
445 149 1 -0.8476 7.328413 10.466707 28.887262
446 149 2 0.4238 6.874957 11.034158 29.574560
447 149 2 0.4238 7.776293 9.693488 29.336189
448 150 1 -0.8476 11.512077 18.401131 37.733244
449 150 2 0.4238 11.791243 18.056567 38.629538
450 150 2 0.4238 11.522259 17.652459 37.070382
451 151 1 -0.8476 10.262410 24.018304 15.548355
452 151 2 0.4238 9.462664 23.774307 16.096872
453 151 2 0.4238 11.028812 24.233189 16.153709
454 152 1 -0.8476 27.015370 7.421123 28.294792
455 152 2 0.4238 27.049425 7.395653 29.293887
456 152 2 0.4238 27.597758 8.161989 27.960214
457 153 1 -0.8476 11.325495 8.146466 16.180631
458 153 2 0.4238 11.735741 7.579865 15.466025
459 153 2 0.4238 12.004469 8.329709 16.891558
460 154 1 -0.8476 24.416686 23.404622 30.416551
461 154 2 0.4238 23.876483 22.764168 30.962445
462 154 2 0.4238 24.070390 24.332871 30.552328
463 155 1 -0.8476 27.739369 15.402074 24.926763
464 155 2 0.4238 27.030655 14.988420 24.355259
465 155 2 0.4238 28.445708 15.803351 24.343615
466 156 1 -0.8476 19.665233 10.032773 42.227598
467 156 2 0.4238 20.174109 9.278381 41.812944
468 156 2 0.4238 19.123099 9.687761 42.993796
469 157 1 -0.8476 11.801044 6.119513 10.498610
470 157 2 0.4238 12.179932 5.954658 11.409251
471 157 2 0.4238 11.176508 6.899722 10.533684
472 158 1 -0.8476 6.819679 2.788486 13.745433
473 158 2 0.4238 7.358578 2.001169 14.044967
474 158 2 0.4238 5.863845 2.657734 14.008655
475 159 1 -0.8476 12.179881 15.656433 16.190520
476 159 2 0.4238 13.048803 16.134536 16.318551
477 159 2 0.4238 11.932571 15.182443 17.035607
478 160 1 -0.8476 8.595867 2.834140 36.949023
479 160 2 0.4238 8.361550 2.008685 36.435486
480 160 2 0.4238 8.738354 3.592902 36.313431
481 161 1 -0.8476 24.817203 4.855603 21.540612
482 161 2 0.4238 23.904700 5.130886 21.238026
483 161 2 0.4238 25.434304 4.826043 20.754283
484 162 1 -0.8476 15.747056 2.964952 16.500643
485 162 2 0.4238 16.002204 2.327729 17.227862
486 162 2 0.4238 14.751654 3.056209 16.471511
487 163 1 -0.8476 25.877157 24.198204 25.620875
488 163 2 0.4238 26.413078 23.443702 25.999708
489 163 2 0.4238 25.479243 24.731974 26.367035
490 164 1 -0.8476 25.684561 6.164566 17.996841
491 164 2 0.4238 25.713062 5.479346 17.269062
492 164 2 0.4238 26.558419 6.649437 18.032530
493 165 1 -0.8476 20.088921 20.796148 40.019274
494 165 2 0.4238 20.348440 19.906125 40.394119
495 165 2 0.4238 19.854632 21.417297 40.767126
496 166 1 -0.8476 8.845971 2.291887 42.819898
497 166 2 0.4238 9.612710 2.553181 42.233522
498 166 2 0.4238 8.065134 2.032315 42.251641
499 167 1 -0.8476 12.314804 5.911661 25.870637
500 167 2 0.4238 12.874161 5.091881 25.747834
501 167 2 0.4238 12.051586 5.994664 26.831797
502 168 1 -0.8476 22.479914 10.978155 41.823401
503 168 2 0.4238 22.493258 10.199837 41.195672
504 168 2 0.4238 22.690120 11.816146 41.319828
505 169 1 -0.8476 24.819232 20.118548 9.245231
506 169 2 0.4238 23.984844 19.697488 9.600909
507 169 2 0.4238 25.537133 20.074395 9.939975
508 170 1 -0.8476 6.888092 11.914203 10.694126
509 170 2 0.4238 7.116310 10.954692 10.529032
510 170 2 0.4238 7.657026 12.366769 11.145706
511 171 1 -0.8476 20.004884 2.349048 26.283658
512 171 2 0.4238 19.833069 2.058370 27.224927
513 171 2 0.4238 19.191764 2.176312 25.727782
514 172 1 -0.8476 22.946926 14.812280 8.491512
515 172 2 0.4238 23.903761 15.102182 8.512126
516 172 2 0.4238 22.356279 15.616607 8.426745
517 173 1 -0.8476 13.228003 13.293763 26.942718
518 173 2 0.4238 12.639455 13.922994 26.435097
519 173 2 0.4238 14.053455 13.106534 26.410201
520 174 1 -0.8476 17.444627 14.099079 18.344139
521 174 2 0.4238 17.090438 14.502867 19.187647
522 174 2 0.4238 16.736508 14.126394 17.638575
523 175 1 -0.8476 18.748993 4.887932 24.021339
524 175 2 0.4238 17.783072 4.756439 24.244288
525 175 2 0.4238 19.202129 3.998284 23.964821
526 176 1 -0.8476 20.408917 11.230515 43.985459
527 176 2 0.4238 19.548716 11.487295 44.426048
528 176 2 0.4238 20.599231 11.861077 43.233015
529 177 1 -0.8476 28.695186 5.708658 24.597537
530 177 2 0.4238 27.708545 5.549026 24.630066
531 177 2 0.4238 28.966147 6.279818 25.372363
532 178 1 -0.8476 24.540926 20.167651 13.954825
533 178 2 0.4238 24.437817 19.267474 14.377967
534 178 2 0.4238 24.149468 20.150288 13.034792
535 179 1 -0.8476 22.879203 6.448093 6.530520
536 179 2 0.4238 23.277203 6.766601 5.670201
537 179 2 0.4238 21.989173 6.883018 6.667221
538 180 1 -0.8476 7.975229 3.064090 29.633501
539 180 2 0.4238 7.093526 2.802297 29.240990
540 180 2 0.4238 8.614379 3.287867 28.897693
541 181 1 -0.8476 25.163828 25.746071 8.523541
542 181 2 0.4238 24.718707 25.068896 7.937622
543 181 2 0.4238 24.693988 26.624303 8.434331
544 182 1 -0.8476 3.909203 18.615373 25.303591
545 182 2 0.4238 3.179499 18.203587 25.849453
546 182 2 0.4238 4.416140 19.269945 25.864441
547 183 1 -0.8476 3.029947 15.552029 25.820928
548 183 2 0.4238 3.535593 15.309430 24.992997
549 183 2 0.4238 2.095361 15.202422 25.755170
550 184 1 -0.8476 28.999806 20.705539 38.706293
551 184 2 0.4238 28.408192 20.121506 38.150506
552 184 2 0.4238 28.867509 20.489637 39.673704
553 185 1 -0.8476 14.136774 14.266892 19.122991
554 185 2 0.4238 14.666720 13.754787 18.447043
555 185 2 0.4238 13.402583 13.688552 19.478642
556 186 1 -0.8476 6.333904 14.709402 40.014084
557 186 2 0.4238 6.612289 13.770583 39.811302
558 186 2 0.4238 5.353260 14.809940 39.846064
559 187 1 -0.8476 11.848354 15.178822 38.744420
560 187 2 0.4238 12.216998 14.609347 39.479131
561 187 2 0.4238 11.968552 14.711742 37.868413
562 188 1 -0.8476 6.728928 11.371717 6.234401
563 188 2 0.4238 7.218009 12.170642 5.884373
564 188 2 0.4238 7.279491 10.550879 6.082397
565 189 1 -0.8476 23.244599 24.169316 15.293067
566 189 2 0.4238 24.219727 24.195588 15.513150
567 189 2 0.4238 22.833081 23.353456 15.699300
568 190 1 -0.8476 2.692136 15.581696 43.049624
569 190 2 0.4238 3.581894 15.193055 42.810272
570 190 2 0.4238 2.574135 16.457460 42.581529
571 191 1 -0.8476 9.566892 26.501868 11.694730
572 191 2 0.4238 10.174129 26.988622 12.322690
573 191 2 0.4238 8.974042 25.886512 12.214216
574 192 1 -0.8476 26.512667 21.278683 15.694906
575 192 2 0.4238 27.271856 21.471677 16.316505
576 192 2 0.4238 25.995252 20.493218 16.034504
577 193 1 -0.8476 9.706408 10.954539 16.433041
578 193 2 0.4238 9.298752 10.903970 15.521307
579 193 2 0.4238 10.699090 11.042133 16.349913
580 194 1 -0.8476 16.654788 21.678894 24.647196
581 194 2 0.4238 15.899027 21.030460 24.738624
582 194 2 0.4238 16.506259 22.252444 23.841603
583 195 1 -0.8476 10.051589 12.381735 11.822821
584 195 2 0.4238 10.621691 12.655869 11.048331
585 195 2 0.4238 9.900225 11.393736 11.792058
586 196 1 -0.8476 28.693377 5.554267 29.158366
587 196 2 0.4238 28.974926 6.360024 29.679410
588 196 2 0.4238 28.920982 4.727946 29.673526
589 197 1 -0.8476 11.356003 16.494282 33.974860
590 197 2 0.4238 12.042607 16.904636 34.575014
591 197 2 0.4238 11.428265 15.497835 34.018130
592 198 1 -0.8476 18.150810 5.142652 19.432101
593 198 2 0.4238 17.914273 5.436711 20.358157
594 198 2 0.4238 18.719858 5.839871 18.996129
595 199 1 -0.8476 14.224929 19.645760 27.580841
596 199 2 0.4238 14.734753 20.275181 26.994404
597 199 2 0.4238 13.704701 19.008184 27.012634
598 200 1 -0.8476 3.254384 20.072686 44.982490
599 200 2 0.4238 3.980185 19.602993 44.479895
600 200 2 0.4238 2.739691 20.657685 44.355698
601 201 1 -0.8476 2.641406 19.155552 39.874685
602 201 2 0.4238 2.392888 20.054985 39.515159
603 201 2 0.4238 2.013489 18.466693 39.512479
604 202 1 -0.8476 28.193639 2.084745 30.352314
605 202 2 0.4238 28.994186 2.043805 30.950185
606 202 2 0.4238 27.363013 2.108414 30.908642
607 203 1 -0.8476 5.467672 20.534420 42.392391
608 203 2 0.4238 4.475335 20.623025 42.306268
609 203 2 0.4238 5.725805 20.600481 43.356239
610 204 1 -0.8476 4.241627 14.939658 37.665109
611 204 2 0.4238 4.360928 15.828254 37.222205
612 204 2 0.4238 4.302122 14.214534 36.979153
613 205 1 -0.8476 20.678331 20.077031 35.532830
614 205 2 0.4238 21.400748 19.386684 35.493646
615 205 2 0.4238 20.663098 20.492281 36.442410
616 206 1 -0.8476 18.207256 18.914886 37.650333
617 206 2 0.4238 17.860744 19.329932 38.491563
618 206 2 0.4238 17.499205 18.950166 36.945054
619 207 1 -0.8476 16.960625 12.492137 21.065968
620 207 2 0.4238 17.698251 12.906011 21.599462
621 207 2 0.4238 16.657879 11.650326 21.512844
622 208 1 -0.8476 10.865709 8.424640 32.010016
623 208 2 0.4238 10.867886 9.185040 31.360564
624 208 2 0.4238 11.601823 8.551972 32.674788
625 209 1 -0.8476 26.714575 21.016846 39.614889
626 209 2 0.4238 25.874545 21.206052 39.106409
627 209 2 0.4238 26.539463 20.304650 40.294678
628 210 1 -0.8476 16.430278 20.165653 32.129268
629 210 2 0.4238 15.685470 20.615493 31.636414
630 210 2 0.4238 17.051453 19.735491 31.474208
631 211 1 -0.8476 23.976118 14.888664 35.431452
632 211 2 0.4238 23.667462 15.773516 35.082496
633 211 2 0.4238 23.656119 14.771097 36.371547
634 212 1 -0.8476 26.155916 2.671491 10.880777
635 212 2 0.4238 26.872921 2.000818 11.070785
636 212 2 0.4238 26.558215 3.585909 10.836112
637 213 1 -0.8476 24.011032 17.515529 24.242546
638 213 2 0.4238 24.448055 17.255829 25.103689
639 213 2 0.4238 23.772839 18.486382 24.269156
640 214 1 -0.8476 20.316835 9.840046 30.083579
641 214 2 0.4238 19.981571 10.547586 30.705660
642 214 2 0.4238 20.866658 10.262851 29.363210
643 215 1 -0.8476 2.699556 15.437120 35.065630
644 215 2 0.4238 3.006473 14.630676 34.560208
645 215 2 0.4238 3.441993 16.105610 35.109311
646 216 1 -0.8476 8.115397 24.182279 21.896103
647 216 2 0.4238 9.034837 24.278858 22.277288
648 216 2 0.4238 8.077758 24.625102 21.000284