LAMMPS data file

1572 atoms
10 atom types
1000 bonds
1 bond types
500 angles
1 angle types

0.000000 31.928625 xlo xhi
0.000000 29.778000 ylo yhi
0.000000 100.000000 zlo zhi

Atoms

1 1 1 -0.8476 6.181588 18.394627 35.170511
2 1 2 0.4238 5.231342 18.677976 35.041103
3 1 2 0.4238 6.514392 17.953701 34.336948
4 2 1 -0.8476 19.809807 26.837168 7.797410
5 2 2 0.4238 18.821956 26.959043 7.700981
6 2 2 0.4238 20.013084 25.869843 7.948940
7 3 1 -0.8476 13.029373 18.006244 10.968500
8 3 2 0.4238 12.111461 17.618119 10.886057
9 3 2 0.4238 13.673183 17.286964 11.229546
10 4 1 -0.8476 3.899831 24.928315 5.770395
11 4 2 0.4238 4.256843 24.626369 6.654348
12 4 2 0.4238 4.262498 24.341525 5.046412
13 5 1 -0.8476 5.648448 15.108877 27.826382
14 5 2 0.4238 6.559122 14.707198 27.922958
15 5 2 0.4238 5.527806 15.440165 26.890597
16 6 1 -0.8476 5.195696 7.674002 41.628191
17 6 2 0.4238 4.697023 7.221975 42.367784
18 6 2 0.4238 5.953626 8.202011 42.011270
19 7 1 -0.8476 3.630758 13.853869 31.710774
20 7 2 0.4238 4.349837 14.543383 31.797354
21 7 2 0.4238 2.980757 14.136897 31.005513
22 8 1 -0.8476 5.446944 7.883894 16.097680
23 8 2 0.4238 4.844122 8.383968 15.475962
24 8 2 0.4238 6.091739 7.334263 15.566506
25 9 1 -0.8476 12.929177 23.000346 34.321707
26 9 2 0.4238 13.080756 23.787984 34.918909
27 9 2 0.4238 12.168547 23.193485 33.701917
28 10 1 -0.8476 18.661640 19.536145 30.592540
29 10 2 0.4238 17.877994 19.304881 30.015984
30 10 2 0.4238 19.432870 19.803865 30.015019
31 11 1 -0.8476 28.968915 19.878209 10.462950
32 11 2 0.4238 28.881850 20.680814 11.053074
33 11 2 0.4238 28.999999 19.052340 11.025954
34 12 1 -0.8476 13.333250 9.965345 6.799853
35 12 2 0.4238 12.476839 10.447870 6.983514
36 12 2 0.4238 13.994953 10.600592 6.401595
37 13 1 -0.8476 6.820097 6.583833 18.817236
38 13 2 0.4238 6.249430 7.149909 19.412130
39 13 2 0.4238 7.417297 6.009095 19.376725
40 14 1 -0.8476 27.669037 21.540121 29.244238
41 14 2 0.4238 27.149139 20.781007 29.635969
42 14 2 0.4238 28.597158 21.234132 29.032196
43 15 1 -0.8476 4.849600 12.921764 7.588145
44 15 2 0.4238 4.762133 12.367051 6.760713
45 15 2 0.4238 3.941513 13.101874 7.966218
46 16 1 -0.8476 2.736737 8.297582 16.100073
47 16 2 0.4238 2.016054 8.912751 16.419734
48 16 2 0.4238 2.683159 8.209872 15.105369
49 17 1 -0.8476 17.368643 13.378393 31.032143
50 17 2 0.4238 16.455851 13.031511 31.247742
51 17 2 0.4238 18.050432 12.875283 31.563223
52 18 1 -0.8476 24.136618 3.010274 39.827422
53 18 2 0.4238 24.841754 3.370617 40.438108
54 18 2 0.4238 23.413641 2.581704 40.369301
55 19 1 -0.8476 14.235522 16.247076 6.250153
56 19 2 0.4238 14.285398 15.408947 6.793341
57 19 2 0.4238 13.295437 16.588014 6.248914
58 20 1 -0.8476 25.547670 15.868609 44.353920
59 20 2 0.4238 26.393886 15.829487 43.822517
60 20 2 0.4238 24.764033 15.770528 43.740492
61 21 1 -0.8476 2.653084 12.555964 21.628572
62 21 2 0.4238 3.022486 11.820918 22.197123
63 21 2 0.4238 2.146545 12.161734 20.861760
64 22 1 -0.8476 28.628166 25.625650 17.639853
65 22 2 0.4238 28.824844 25.142622 16.786623
66 22 2 0.4238 27.823624 26.206530 17.516199
67 23 1 -0.8476 28.190640 12.789921 20.850906
68 23 2 0.4238 27.912266 13.319211 21.652380
69 23 2 0.4238 27.852809 11.852631 20.936677
70 24 1 -0.8476 23.602465 11.694011 24.900895
71 24 2 0.4238 22.914540 11.922696 24.212083
72 24 2 0.4238 24.400700 11.290552 24.453632
73 25 1 -0.8476 13.821637 19.147038 23.388445
74 25 2 0.4238 12.846152 18.965992 23.263336
75 25 2 0.4238 14.354039 18.476312 22.872039
76 26 1 -0.8476 21.928154 21.225602 17.561328
77 26 2 0.4238 20.983163 20.918368 17.449080
78 26 2 0.4238 22.133005 21.929049 16.880741
79 27 1 -0.8476 12.293389 7.233702 30.948008
80 27 2 0.4238 11.316432 7.286535 30.741212
81 27 2 0.4238 12.703538 8.140853 30.853909
82 28 1 -0.8476 13.306914 22.374824 24.749349
83 28 2 0.4238 12.952904 21.673043 25.367558
84 28 2 0.4238 12.556660 22.746656 24.202667
85 29 1 -0.8476 7.896657 12.941074 29.880515
86 29 2 0.4238 7.861203 13.754729 30.460781
87 29 2 0.4238 8.338311 13.169435 29.012878
88 30 1 -0.8476 25.186892 16.277168 34.054304
89 30 2 0.4238 25.883192 16.647172 33.439273
90 30 2 0.4238 24.315670 16.208028 33.568307
91 31 1 -0.8476 6.028412 2.114216 8.545300
92 31 2 0.4238 5.976208 2.568693 7.656072
93 31 2 0.4238 6.984738 2.047492 8.829887
94 32 1 -0.8476 27.694556 9.193092 16.694245
95 32 2 0.4238 26.808304 9.622707 16.867418
96 32 2 0.4238 27.760742 8.343115 17.216891
97 33 1 -0.8476 18.200090 16.858295 38.053227
98 33 2 0.4238 17.313357 17.250254 37.808129
99 33 2 0.4238 18.920715 17.529454 37.879320
100 34 1 -0.8476 14.022131 13.375245 33.933015
101 34 2 0.4238 14.286530 12.837751 34.733761
102 34 2 0.4238 13.149991 13.038121 33.578445
103 35 1 -0.8476 14.445482 17.088542 17.188599
104 35 2 0.4238 14.812204 16.170333 17.338290
105 35 2 0.4238 15.200370 17.736620 17.087904
106 36 1 -0.8476 13.577897 12.237658 31.493785
107 36 2 0.4238 14.170874 12.969231 31.157363
108 36 2 0.4238 14.087067 11.664664 32.135987
109 37 1 -0.8476 21.627088 15.143938 33.331388
110 37 2 0.4238 21.255521 15.720598 32.603787
111 37 2 0.4238 21.020427 14.363071 33.480415
112 38 1 -0.8476 28.334514 19.661471 15.746413
113 38 2 0.4238 28.998160 19.070283 15.288078
114 38 2 0.4238 28.265739 19.401372 16.709543
115 39 1 -0.8476 26.836440 14.256000 34.925016
116 39 2 0.4238 27.680349 14.698911 35.227750
117 39 2 0.4238 26.731172 14.378557 33.938153
118 40 1 -0.8476 24.229026 4.280343 11.371523
119 40 2 0.4238 24.012333 3.553486 12.023232
120 40 2 0.4238 24.192252 5.165594 11.835181
121 41 1 -0.8476 17.552328 10.010027 34.421816
122 41 2 0.4238 17.971220 10.299936 33.561303
123 41 2 0.4238 18.109574 10.329758 35.188138
124 42 1 -0.8476 5.400692 26.519847 18.304025
125 42 2 0.4238 5.629740 26.997788 17.456022
126 42 2 0.4238 5.812122 26.999926 19.078784
127 43 1 -0.8476 22.712152 25.320217 25.177314
128 43 2 0.4238 22.733436 26.319166 25.136727
129 43 2 0.4238 23.611950 24.978400 25.448469
130 44 1 -0.8476 28.955099 22.619653 13.569824
131 44 2 0.4238 28.918568 23.431334 14.152783
132 44 2 0.4238 28.979754 21.799539 14.141494
133 45 1 -0.8476 17.891549 21.368974 7.931907
134 45 2 0.4238 17.449980 22.107635 7.422596
135 45 2 0.4238 17.747969 20.502381 7.453993
136 46 1 -0.8476 3.121718 18.691663 37.957095
137 46 2 0.4238 3.650745 18.445338 38.769163
138 46 2 0.4238 3.738517 19.035946 37.249261
139 47 1 -0.8476 10.024228 19.354106 29.892186
140 47 2 0.4238 10.750507 18.671588 29.810409
141 47 2 0.4238 9.237312 19.070771 29.344021
142 48 1 -0.8476 23.144930 17.954975 31.152519
143 48 2 0.4238 22.411636 18.123697 30.493874
144 48 2 0.4238 24.022034 17.921189 30.673408
145 49 1 -0.8476 3.904102 4.423924 40.505166
146 49 2 0.4238 3.093548 3.883206 40.280165
147 49 2 0.4238 4.572693 4.345835 39.765646
148 50 1 -0.8476 25.434385 11.835775 19.063303
149 50 2 0.4238 25.146421 12.637768 19.586642
150 50 2 0.4238 24.643870 11.247507 18.892928
151 51 1 -0.8476 10.142647 8.262946 14.591568
152 51 2 0.4238 10.166495 9.133967 14.100901
153 51 2 0.4238 10.154709 7.509572 13.934085
154 52 1 -0.8476 14.658607 12.694786 15.482696
155 52 2 0.4238 14.976754 11.939985 16.056331
156 52 2 0.4238 15.018252 13.557724 15.837652
157 53 1 -0.8476 19.388051 8.565871 43.143060
158 53 2 0.4238 19.821767 8.741555 42.259303
159 53 2 0.4238 19.451378 9.384410 43.714011
160 54 1 -0.8476 3.237361 10.705708 10.949571
161 54 2 0.4238 4.087611 10.823846 11.462522
162 54 2 0.4238 2.458641 10.788841 11.571411
163 55 1 -0.8476 6.861702 2.056678 34.318601
164 55 2 0.4238 7.652226 2.532404 33.932908
165 55 2 0.4238 6.042318 2.294908 33.797202
166 56 1 -0.8476 12.281838 7.201380 21.025940
167 56 2 0.4238 12.250123 8.113507 21.434620
168 56 2 0.4238 12.689052 7.258535 20.114397
169 57 1 -0.8476 15.250208 10.979841 38.818158
170 57 2 0.4238 15.843680 11.545766 39.390453
171 57 2 0.4238 14.660708 10.420111 39.400560
172 58 1 -0.8476 21.221919 18.356565 33.259554
173 58 2 0.4238 20.797880 18.308998 34.163948
174 58 2 0.4238 20.884445 19.163748 32.775232
175 59 1 -0.8476 23.500145 9.729181 21.897334
176 59 2 0.4238 23.328225 9.554646 22.866860
177 59 2 0.4238 22.880515 9.172968 21.343541
178 60 1 -0.8476 8.638607 12.455459 26.150056
179 60 2 0.4238 9.338817 12.179666 25.491538
180 60 2 0.4238 7.804954 11.926473 25.991321
181 61 1 -0.8476 4.410949 21.793981 41.411427
182 61 2 0.4238 3.791128 21.937753 40.639966
183 61 2 0.4238 3.886221 21.499753 42.210233
184 62 1 -0.8476 3.797901 5.671535 8.737508
185 62 2 0.4238 3.046113 5.708815 8.079158
186 62 2 0.4238 4.666849 5.601672 8.247559
187 63 1 -0.8476 2.668926 15.498176 19.706754
188 63 2 0.4238 3.377967 15.640605 19.016120
189 63 2 0.4238 2.142170 14.679060 19.479649
190 64 1 -0.8476 27.763421 3.320117 17.134087
191 64 2 0.4238 28.651031 3.161666 17.566569
192 64 2 0.4238 27.465571 2.486344 16.669213
193 65 1 -0.8476 12.175383 4.920754 17.137682
194 65 2 0.4238 12.699342 5.217591 16.339336
195 65 2 0.4238 11.309454 5.419715 17.172393
196 66 1 -0.8476 27.550261 12.937016 29.097437
197 66 2 0.4238 27.151068 12.033120 28.943756
198 66 2 0.4238 28.188563 13.149655 28.357602
199 67 1 -0.8476 26.673196 9.872864 20.398952
200 67 2 0.4238 27.134872 9.868350 19.511915
201 67 2 0.4238 27.328966 9.640310 21.117203
202 68 1 -0.8476 8.102695 17.850025 13.576123
203 68 2 0.4238 7.527368 18.548305 14.002040
204 68 2 0.4238 8.017759 17.909380 12.581506
205 69 1 -0.8476 27.838532 9.555621 37.728376
206 69 2 0.4238 28.104569 10.004792 36.875457
207 69 2 0.4238 27.156804 8.850048 37.534950
208 70 1 -0.8476 16.798349 9.801852 30.914753
209 70 2 0.4238 16.962014 8.996909 31.485087
210 70 2 0.4238 16.660338 10.601723 31.498843
211 71 1 -0.8476 18.687302 6.696060 11.438064
212 71 2 0.4238 18.495007 7.455389 12.059710
213 71 2 0.4238 18.274947 5.858760 11.797081
214 72 1 -0.8476 8.406570 3.242117 15.736019
215 72 2 0.4238 7.563781 3.341835 15.207093
216 72 2 0.4238 9.194661 3.387107 15.137778
217 73 1 -0.8476 15.664268 5.565597 13.768311
218 73 2 0.4238 15.309688 5.415761 12.845369
219 73 2 0.4238 16.466549 6.160940 13.724577
220 74 1 -0.8476 4.563224 9.673712 5.087416
221 74 2 0.4238 4.451179 10.635913 5.335638
222 74 2 0.4238 5.207965 9.240003 5.716864
223 75 1 -0.8476 8.114140 9.361353 27.913890
224 75 2 0.4238 8.513199 9.877613 28.671669
225 75 2 0.4238 7.575651 9.976789 27.338330
226 76 1 -0.8476 19.767222 5.458218 13.685914
227 76 2 0.4238 20.058591 5.248386 14.619228
228 76 2 0.4238 19.844343 6.442326 13.525963
229 77 1 -0.8476 7.094323 26.609155 8.685471
230 77 2 0.4238 7.138864 26.436339 7.701524
231 77 2 0.4238 6.163317 26.444162 9.011055
232 78 1 -0.8476 22.437467 9.117757 43.103650
233 78 2 0.4238 21.675784 9.257924 43.736259
234 78 2 0.4238 23.004532 8.360357 43.427351
235 79 1 -0.8476 24.527124 23.041019 37.855291
236 79 2 0.4238 25.182771 22.286078 37.869116
237 79 2 0.4238 24.566339 23.500332 36.967883
238 80 1 -0.8476 20.856167 17.764772 39.312777
239 80 2 0.4238 20.949216 18.701621 38.975647
240 80 2 0.4238 19.989512 17.671435 39.802877
241 81 1 -0.8476 8.512333 14.940626 38.151995
242 81 2 0.4238 9.182265 15.568633 37.756016
243 81 2 0.4238 8.988447 14.217541 38.652458
244 82 1 -0.8476 20.964327 4.863665 6.830255
245 82 2 0.4238 20.735667 5.555029 6.144886
246 82 2 0.4238 20.976511 5.284689 7.737222
247 83 1 -0.8476 24.548153 14.186749 17.832571
248 83 2 0.4238 24.763763 14.996209 18.378729
249 83 2 0.4238 24.679058 14.394213 16.863126
250 84 1 -0.8476 22.526525 12.500828 44.732721
251 84 2 0.4238 23.487578 12.242754 44.633852
252 84 2 0.4238 21.946872 11.711901 44.528768
253 85 1 -0.8476 19.094036 26.638214 44.384579
254 85 2 0.4238 19.921376 26.779282 44.928278
255 85 2 0.4238 18.302690 26.573487 44.992511
256 86 1 -0.8476 2.879810 5.426879 29.672056
257 86 2 0.4238 3.391344 5.920089 28.968439
258 86 2 0.4238 2.004388 5.883832 29.829637
259 87 1 -0.8476 28.381693 19.957613 19.838274
260 87 2 0.4238 27.575800 19.532659 20.250526
261 87 2 0.4238 28.950090 20.360148 20.555832
262 88 1 -0.8476 18.453127 13.369511 23.252165
263 88 2 0.4238 17.759859 13.815809 23.818025
264 88 2 0.4238 19.214346 13.073537 23.829179
265 89 1 -0.8476 20.206683 19.280042 6.769134
266 89 2 0.4238 20.237367 19.965328 7.496762
267 89 2 0.4238 19.939039 18.396806 7.154180
268 90 1 -0.8476 14.296393 15.549925 14.939554
269 90 2 0.4238 13.925105 15.374846 14.027692
270 90 2 0.4238 15.114645 16.119602 14.862530
271 91 1 -0.8476 4.331988 5.822540 14.038976
272 91 2 0.4238 3.685200 6.073125 14.759305
273 91 2 0.4238 4.062548 6.261268 13.181701
274 92 1 -0.8476 13.653116 14.920779 20.156020
275 92 2 0.4238 12.906535 15.259799 19.583584
276 92 2 0.4238 14.421510 14.650361 19.575982
277 93 1 -0.8476 28.815941 7.950817 44.492211
278 93 2 0.4238 28.906821 8.761767 43.914196
279 93 2 0.4238 28.469105 7.188852 43.945295
280 94 1 -0.8476 12.199997 11.152992 20.554527
281 94 2 0.4238 11.558535 11.539240 19.891701
282 94 2 0.4238 11.796213 10.340261 20.974559
283 95 1 -0.8476 12.056146 26.908569 14.466040
284 95 2 0.4238 11.345441 26.841877 13.765719
285 95 2 0.4238 11.633620 26.892979 15.372257
286 96 1 -0.8476 24.159832 3.274341 6.123277
287 96 2 0.4238 24.699714 3.087727 6.944071
288 96 2 0.4238 23.192496 3.109694 6.316030
289 97 1 -0.8476 9.915396 9.786165 6.038225
290 97 2 0.4238 10.314833 10.623024 6.412548
291 97 2 0.4238 10.014788 9.043977 6.701005
292 98 1 -0.8476 25.043060 5.292004 30.163428
293 98 2 0.4238 25.773351 5.092525 29.510065
294 98 2 0.4238 24.185936 5.440513 29.670190
295 99 1 -0.8476 27.446884 17.297299 22.799550
296 99 2 0.4238 26.755610 17.901288 22.402892
297 99 2 0.4238 27.738973 17.660726 23.684200
298 100 1 -0.8476 19.273555 22.894757 43.975418
299 100 2 0.4238 19.765772 22.025303 44.017530
300 100 2 0.4238 18.742018 23.017790 44.813470
301 101 1 -0.8476 13.686112 17.989008 8.479275
302 101 2 0.4238 14.364533 18.531236 7.983558
303 101 2 0.4238 13.956974 17.026440 8.469467
304 102 1 -0.8476 24.105135 7.761217 19.328183
305 102 2 0.4238 24.887346 7.175588 19.115613
306 102 2 0.4238 23.592089 7.368129 20.091247
307 103 1 -0.8476 10.339482 15.192998 34.401013
308 103 2 0.4238 9.343548 15.266741 34.349262
309 103 2 0.4238 10.730640 16.092496 34.595691
310 104 1 -0.8476 21.411887 14.092594 43.690289
311 104 2 0.4238 21.091121 13.310396 43.156177
312 104 2 0.4238 21.486382 14.893690 43.096407
313 105 1 -0.8476 10.410872 13.964871 31.826444
314 105 2 0.4238 9.464547 14.151240 32.090522
315 105 2 0.4238 11.012892 14.648363 32.239254
316 106 1 -0.8476 20.479573 17.492356 12.736766
317 106 2 0.4238 19.661623 17.775187 13.237730
318 106 2 0.4238 21.045751 16.912898 13.323001
319 107 1 -0.8476 25.056877 3.164218 35.180450
320 107 2 0.4238 25.646540 3.920308 34.896504
321 107 2 0.4238 24.441823 2.921340 34.430303
322 108 1 -0.8476 6.071354 12.037892 42.329098
323 108 2 0.4238 7.001325 11.935690 42.682240
324 108 2 0.4238 5.667631 12.877921 42.691534
325 109 1 -0.8476 26.521692 14.108689 39.387889
326 109 2 0.4238 27.303946 13.992662 38.775830
327 109 2 0.4238 25.676909 14.108638 38.852780
328 110 1 -0.8476 2.133151 13.470665 35.994780
329 110 2 0.4238 2.167576 14.317922 35.464713
330 110 2 0.4238 1.999414 12.696010 35.376698
331 111 1 -0.8476 28.437944 3.862457 38.777560
332 111 2 0.4238 28.999908 4.063661 37.975242
333 111 2 0.4238 27.667411 4.498876 38.812894
334 112 1 -0.8476 16.635909 2.779067 26.172708
335 112 2 0.4238 17.272048 3.514217 25.938436
336 112 2 0.4238 16.918014 2.355954 27.033749
337 113 1 -0.8476 18.959010 18.380164 20.337256
338 113 2 0.4238 18.809563 19.176678 20.923115
339 113 2 0.4238 19.121039 17.573770 20.906007
340 114 1 -0.8476 14.514027 16.949426 43.301807
341 114 2 0.4238 13.771300 17.416420 42.821940
342 114 2 0.4238 15.160037 16.577921 42.634982
343 115 1 -0.8476 12.602036 15.188573 28.918748
344 115 2 0.4238 12.216292 15.778960 29.627723
345 115 2 0.4238 13.319948 14.616589 29.315533
346 116 1 -0.8476 24.101191 2.637010 20.759268
347 116 2 0.4238 24.520931 2.000017 21.405842
348 116 2 0.4238 24.795208 2.969272 20.120564
349 117 1 -0.8476 13.052834 3.979902 12.072550
350 117 2 0.4238 13.323424 3.224197 11.476151
351 117 2 0.4238 12.082425 4.180073 11.937503
352 118 1 -0.8476 9.112464 8.387004 43.524565
353 118 2 0.4238 9.183067 7.599497 44.136814
354 118 2 0.4238 9.099039 9.228702 44.064346
355 119 1 -0.8476 7.719537 13.562745 7.734254
356 119 2 0.4238 7.143900 13.911887 8.473674
357 119 2 0.4238 8.597565 13.263928 8.108120
358 120 1 -0.8476 23.034183 24.338935 12.630920
359 120 2 0.4238 22.086705 24.596622 12.820347
360 120 2 0.4238 23.280163 24.629616 11.706258
361 121 1 -0.8476 12.418213 21.127822 44.095243
362 121 2 0.4238 13.356919 21.408919 43.895700
363 121 2 0.4238 12.083515 20.538052 43.360295
364 122 1 -0.8476 3.898859 21.029007 6.623451
365 122 2 0.4238 4.547297 21.080101 5.863899
366 122 2 0.4238 2.996044 20.777531 6.274618
367 123 1 -0.8476 20.566120 11.370610 20.956692
368 123 2 0.4238 21.040147 12.168823 21.328384
369 123 2 0.4238 21.126029 10.954041 20.240472
370 124 1 -0.8476 26.710473 15.543595 6.491315
371 124 2 0.4238 25.922326 15.715033 5.900187
372 124 2 0.4238 26.670245 16.150735 7.284891
373 125 1 -0.8476 13.341611 10.670002 34.693586
374 125 2 0.4238 12.820702 10.862026 33.861852
375 125 2 0.4238 14.241348 10.309497 34.447600
376 126 1 -0.8476 13.922502 5.804042 27.020341
377 126 2 0.4238 13.493592 5.332061 26.250100
378 126 2 0.4238 14.067506 5.156959 27.768845
379 127 1 -0.8476 11.721361 3.091492 31.367516
380 127 2 0.4238 12.533575 3.465403 30.919743
381 127 2 0.4238 11.856525 3.093017 32.358339
382 128 1 -0.8476 27.165526 20.234521 22.460787
383 128 2 0.4238 27.121665 19.839079 23.378230
384 128 2 0.4238 27.883282 20.930206 22.431655
385 129 1 -0.8476 21.703140 26.763958 39.334687
386 129 2 0.4238 22.670648 26.974627 39.474497
387 129 2 0.4238 21.188678 26.996783 40.159988
388 130 1 -0.8476 2.588233 5.318768 26.873406
389 130 2 0.4238 2.011857 4.525023 27.067729
390 130 2 0.4238 2.009937 6.108668 26.669369
391 131 1 -0.8476 21.751528 13.040419 30.998886
392 131 2 0.4238 21.081758 13.497046 30.413308
393 131 2 0.4238 22.647756 13.056556 30.555585
394 132 1 -0.8476 13.142974 23.207062 11.707472
395 132 2 0.4238 12.228041 23.602284 11.625633
396 132 2 0.4238 13.266211 22.839914 12.629435
397 133 1 -0.8476 7.324444 9.559114 16.767448
398 133 2 0.4238 6.554244 10.171437 16.588977
399 133 2 0.4238 8.002875 10.032000 17.329685
400 134 1 -0.8476 22.799982 22.663329 40.410615
401 134 2 0.4238 22.068681 23.181185 40.854489
402 134 2 0.4238 23.512263 22.451882 41.079903
403 135 1 -0.8476 7.917017 22.166812 43.936180
404 135 2 0.4238 8.047396 21.741444 44.831760
405 135 2 0.4238 7.534960 23.083291 44.054921
406 136 1 -0.8476 9.167145 17.674902 31.293265
407 136 2 0.4238 9.535102 18.158698 32.087336
408 136 2 0.4238 8.748813 16.816556 31.590319
409 137 1 -0.8476 10.144951 17.622749 27.045980
410 137 2 0.4238 9.645622 17.363335 27.872645
411 137 2 0.4238 11.057009 17.947970 27.295746
412 138 1 -0.8476 14.606663 9.893090 10.986695
413 138 2 0.4238 13.715423 9.827945 10.537864
414 138 2 0.4238 14.729054 9.112462 11.599589
415 139 1 -0.8476 24.917046 19.651875 32.219553
416 139 2 0.4238 25.480635 20.380878 32.608040
417 139 2 0.4238 24.076673 19.559715 32.753670
418 140 1 -0.8476 7.546958 11.076237 40.361596
419 140 2 0.4238 7.040752 11.805392 39.901066
420 140 2 0.4238 8.450022 11.413795 40.627174
421 141 1 -0.8476 7.876756 14.583409 25.603337
422 141 2 0.4238 7.317659 13.899779 25.134230
423 141 2 0.4238 7.952784 15.400721 25.032179
424 142 1 -0.8476 26.658566 22.747712 9.741254
425 142 2 0.4238 26.421316 22.519912 8.796891
426 142 2 0.4238 26.861264 23.724703 9.807608
427 143 1 -0.8476 16.681272 10.608868 24.273081
428 143 2 0.4238 16.697336 9.923075 23.545461
429 143 2 0.4238 17.208185 10.277043 25.055549
430 144 1 -0.8476 13.375609 8.181571 24.175634
431 144 2 0.4238 13.084314 9.124895 24.334659
432 144 2 0.4238 14.290977 8.046931 24.555073
433 145 1 -0.8476 10.289359 19.807262 21.229285
434 145 2 0.4238 9.631632 19.054047 21.221369
435 145 2 0.4238 10.348020 20.188861 22.151750
436 146 1 -0.8476 21.449415 3.978130 29.036926
437 146 2 0.4238 20.619137 3.988156 28.479666
438 146 2 0.4238 22.248444 4.092504 28.446611
439 147 1 -0.8476 22.793488 25.984431 10.040031
440 147 2 0.4238 23.448626 25.490944 9.467960
441 147 2 0.4238 22.167478 26.503458 9.458032
442 148 1 -0.8476 26.872877 8.931035 13.716904
443 148 2 0.4238 27.025325 8.660160 14.667371
444 148 2 0.4238 26.444745 8.176319 13.219805
445 149 1 -0.8476 19.766496 12.722251 18.489154
446 149 2 0.4238 19.147224 12.747543 19.273924
447 149 2 0.4238 20.708740 12.835614 18.804313
448 150 1 -0.8476 22.346314 15.570485 18.019905
449 150 2 0.4238 22.487374 14.876805 18.726242
450 150 2 0.4238 22.120876 16.444151 18.451050
451 151 1 -0.8476 13.945501 26.816713 6.872855
452 151 2 0.4238 13.496710 26.421008 7.674108
453 151 2 0.4238 14.936681 26.721475 6.965005
454 152 1 -0.8476 19.844644 21.523537 41.524778
455 152 2 0.4238 20.697620 21.173947 41.137196
456 152 2 0.4238 19.072677 21.200164 40.977513
457 153 1 -0.8476 13.661220 15.705460 32.106872
458 153 2 0.4238 14.198683 16.386797 32.603776
459 153 2 0.4238 13.142737 15.150695 32.757574
460 154 1 -0.8476 19.215747 22.981835 17.382586
461 154 2 0.4238 19.558325 23.722120 17.961049
462 154 2 0.4238 18.866367 22.242994 17.958822
463 155 1 -0.8476 22.349772 3.433697 9.428803
464 155 2 0.4238 21.917846 4.197535 9.908377
465 155 2 0.4238 21.648799 2.780010 9.143616
466 156 1 -0.8476 9.816715 8.813002 22.891491
467 156 2 0.4238 9.710953 8.035276 22.271848
468 156 2 0.4238 10.472281 9.461146 22.504009
469 157 1 -0.8476 28.357616 24.618782 28.208148
470 157 2 0.4238 28.817064 23.835551 27.789272
471 157 2 0.4238 27.652670 24.962589 27.587786
472 158 1 -0.8476 28.996512 11.828293 31.881654
473 158 2 0.4238 28.513429 12.056806 32.726884
474 158 2 0.4238 28.894269 10.851600 31.692929
475 159 1 -0.8476 7.082313 26.975270 37.893979
476 159 2 0.4238 6.586922 26.988687 37.025412
477 159 2 0.4238 8.065940 27.010580 37.717256
478 160 1 -0.8476 22.870900 8.170346 10.724455
479 160 2 0.4238 22.173647 7.988201 11.417753
480 160 2 0.4238 23.777790 8.121891 11.143027
481 161 1 -0.8476 7.447630 25.399236 39.387678
482 161 2 0.4238 7.430416 25.976367 40.204148
483 161 2 0.4238 6.691089 24.746355 39.424989
484 162 1 -0.8476 13.407666 6.547198 36.647829
485 162 2 0.4238 13.582232 7.498601 36.901519
486 162 2 0.4238 13.883612 6.337266 35.793777
487 163 1 -0.8476 13.100331 25.592241 24.001939
488 163 2 0.4238 12.568972 25.217009 24.761451
489 163 2 0.4238 13.163147 24.912478 23.271202
490 164 1 -0.8476 25.964171 16.073501 41.269296
491 164 2 0.4238 26.671116 16.780291 41.295325
492 164 2 0.4238 26.314339 15.236207 41.689204
493 165 1 -0.8476 28.091552 21.212570 37.266091
494 165 2 0.4238 27.196573 21.251578 36.821692
495 165 2 0.4238 28.666535 20.540714 36.799182
496 166 1 -0.8476 25.129405 13.913687 8.241688
497 166 2 0.4238 24.403162 14.023869 7.563138
498 166 2 0.4238 26.015858 13.886237 7.779683
499 167 1 -0.8476 17.849966 8.617735 20.736886
500 167 2 0.4238 18.760842 8.480577 20.347666
501 167 2 0.4238 17.801853 9.521521 21.162161
502 168 1 -0.8476 25.589081 8.236179 25.173380
503 168 2 0.4238 26.522961 8.188206 25.527733
504 168 2 0.4238 25.402798 9.163676 24.849267
505 169 1 -0.8476 5.447944 8.953091 30.033104
506 169 2 0.4238 4.670712 8.712499 29.451705
507 169 2 0.4238 6.217113 9.237081 29.460628
508 170 1 -0.8476 22.750687 25.583737 37.730242
509 170 2 0.4238 21.823158 25.519909 37.361981
510 170 2 0.4238 22.957171 24.759865 38.258067
511 171 1 -0.8476 16.172450 22.855653 23.897700
512 171 2 0.4238 15.277245 22.900080 23.454264
513 171 2 0.4238 16.173319 23.443711 24.706519
514 172 1 -0.8476 28.583227 12.555432 36.242203
515 172 2 0.4238 28.999917 11.785971 35.758157
516 172 2 0.4238 28.133084 12.223385 37.071128
517 173 1 -0.8476 9.161235 12.367164 15.277864
518 173 2 0.4238 8.329873 11.821896 15.385199
519 173 2 0.4238 9.241227 13.006950 16.042243
520 174 1 -0.8476 8.804169 6.769219 33.388504
521 174 2 0.4238 9.163061 7.233587 34.198170
522 174 2 0.4238 9.551087 6.591190 32.747865
523 175 1 -0.8476 26.358235 5.447318 40.365718
524 175 2 0.4238 26.952505 6.217819 40.135127
525 175 2 0.4238 25.671745 5.329464 39.648193
526 176 1 -0.8476 3.212027 24.257367 17.968937
527 176 2 0.4238 3.418348 24.415303 17.003283
528 176 2 0.4238 4.009162 23.854284 18.418493
529 177 1 -0.8476 20.387792 12.419780 11.995975
530 177 2 0.4238 20.168567 13.120185 12.675220
531 177 2 0.4238 20.891897 11.675999 12.434917
532 178 1 -0.8476 25.332017 23.519889 11.569125
533 178 2 0.4238 25.773834 24.203184 12.150421
534 178 2 0.4238 24.693598 22.979019 12.116740
535 179 1 -0.8476 22.874810 13.660772 37.103159
536 179 2 0.4238 22.556995 14.094686 37.946197
537 179 2 0.4238 23.847363 13.854716 36.974607
538 180 1 -0.8476 19.695136 7.114459 8.361964
539 180 2 0.4238 19.045074 6.598297 7.804293
540 180 2 0.4238 20.357761 7.568893 7.766634
541 181 1 -0.8476 22.100903 6.203378 15.605713
542 181 2 0.4238 21.993993 7.191493 15.495265
543 181 2 0.4238 22.944361 5.907220 15.157528
544 182 1 -0.8476 19.506095 6.499459 31.956232
545 182 2 0.4238 19.832642 7.304887 32.450856
546 182 2 0.4238 19.167537 5.821918 32.609163
547 183 1 -0.8476 28.255977 9.388650 12.040007
548 183 2 0.4238 27.447070 9.269781 11.464210
549 183 2 0.4238 28.858732 8.597609 11.935403
550 184 1 -0.8476 21.165847 18.756344 42.007280
551 184 2 0.4238 21.578718 19.034316 41.139946
552 184 2 0.4238 20.684276 17.888617 41.884237
553 185 1 -0.8476 4.483569 26.988558 21.289300
554 185 2 0.4238 4.633039 26.147483 21.809158
555 185 2 0.4238 4.071990 26.765526 20.405637
556 186 1 -0.8476 12.530706 17.837355 20.722810
557 186 2 0.4238 13.313578 17.433858 21.196415
558 186 2 0.4238 11.891182 18.211118 21.394606
559 187 1 -0.8476 8.261505 9.149851 21.028223
560 187 2 0.4238 9.007477 9.111159 20.363371
561 187 2 0.4238 7.576128 9.810570 20.722103
562 188 1 -0.8476 14.971440 8.743792 8.165612
563 188 2 0.4238 14.263727 8.192553 8.607516
564 188 2 0.4238 15.574912 9.132024 8.862102
565 189 1 -0.8476 7.363299 19.930995 43.770238
566 189 2 0.4238 7.068168 19.963958 42.815350
567 189 2 0.4238 6.589912 20.148132 44.365825
568 190 1 -0.8476 13.962415 5.796131 39.470482
569 190 2 0.4238 14.747294 6.402829 39.596507
570 190 2 0.4238 13.438003 5.748581 40.320618
571 191 1 -0.8476 10.763840 25.491780 34.983123
572 191 2 0.4238 11.569972 25.387227 34.400696
573 191 2 0.4238 10.365853 24.592787 35.165933
574 192 1 -0.8476 10.193678 15.024456 29.166230
575 192 2 0.4238 9.767381 14.968472 28.263381
576 192 2 0.4238 9.511156 15.307337 29.840132
577 193 1 -0.8476 17.690038 20.265873 17.957457
578 193 2 0.4238 16.986745 20.651130 18.554915
579 193 2 0.4238 17.590580 20.645524 17.037689
580 194 1 -0.8476 28.934385 15.399942 6.121430
581 194 2 0.4238 28.999996 16.258531 6.629878
582 194 2 0.4238 28.839699 14.638916 6.763205
583 195 1 -0.8476 24.802995 22.834178 27.366962
584 195 2 0.4238 25.404213 23.432582 26.837386
585 195 2 0.4238 24.703122 23.197331 28.293323
586 196 1 -0.8476 21.050596 23.597624 33.297198
587 196 2 0.4238 21.334290 24.224369 32.571451
588 196 2 0.4238 20.715668 22.747321 32.891232
589 197 1 -0.8476 10.628626 24.268529 14.928291
590 197 2 0.4238 10.714273 23.838633 15.827099
591 197 2 0.4238 10.228480 25.179190 15.031148
592 198 1 -0.8476 15.330636 5.428666 33.030130
593 198 2 0.4238 15.903599 6.096813 32.555479
594 198 2 0.4238 14.640828 5.073258 32.399375
595 199 1 -0.8476 22.297714 21.279651 22.070689
596 199 2 0.4238 22.159744 20.991853 23.018390
597 199 2 0.4238 23.238202 21.598332 21.952682
598 200 1 -0.8476 17.934375 17.340770 6.204093
599 200 2 0.4238 17.602380 18.226624 6.528195
600 200 2 0.4238 17.726154 16.637702 6.884049
601 201 1 -0.8476 23.965853 15.739368 14.362925
602 201 2 0.4238 23.510643 15.385826 13.545739
603 201 2 0.4238 24.664725 16.402396 14.094650
604 202 1 -0.8476 24.955612 23.057347 16.661277
605 202 2 0.4238 24.425331 22.443570 17.246153
606 202 2 0.4238 24.576248 23.980935 16.716668
607 203 1 -0.8476 2.575984 9.397398 29.207353
608 203 2 0.4238 2.212298 9.437033 30.138031
609 203 2 0.4238 2.246874 10.185413 28.687047
610 204 1 -0.8476 21.588856 6.726847 29.747737
611 204 2 0.4238 20.738773 7.244708 29.651928
612 204 2 0.4238 21.557243 6.186940 30.588869
613 205 1 -0.8476 28.237529 9.910382 40.685179
614 205 2 0.4238 28.953034 10.568727 40.918919
615 205 2 0.4238 27.795732 9.587133 41.522034
616 206 1 -0.8476 18.180818 9.038785 28.394750
617 206 2 0.4238 17.762686 9.780943 28.918550
618 206 2 0.4238 19.169354 9.040056 28.545729
619 207 1 -0.8476 26.419560 11.888535 26.252387
620 207 2 0.4238 26.809035 11.221691 26.887705
621 207 2 0.4238 25.568427 12.252063 26.631095
622 208 1 -0.8476 23.141835 25.254826 6.034658
623 208 2 0.4238 23.014439 24.415283 5.506511
624 208 2 0.4238 22.642847 26.002842 5.597070
625 209 1 -0.8476 16.515478 20.819964 25.847778
626 209 2 0.4238 15.778315 20.643945 25.195390
627 209 2 0.4238 17.341052 21.090843 25.352749
628 210 1 -0.8476 24.471166 24.448773 7.795512
629 210 2 0.4238 24.143153 23.537421 7.546824
630 210 2 0.4238 25.246778 24.364642 8.421089
631 211 1 -0.8476 16.568549 6.194412 42.433777
632 211 2 0.4238 16.094547 5.548597 41.835240
633 211 2 0.4238 17.019098 6.893925 41.879081
634 212 1 -0.8476 7.087875 11.732505 11.622566
635 212 2 0.4238 7.796431 12.432072 11.530075
636 212 2 0.4238 6.380404 12.055709 12.251076
637 213 1 -0.8476 16.750583 17.760161 24.848468
638 213 2 0.4238 17.480874 18.301434 24.431696
639 213 2 0.4238 15.865984 18.068438 24.498539
640 214 1 -0.8476 21.228527 15.673157 21.622133
641 214 2 0.4238 21.134133 16.443461 20.991481
642 214 2 0.4238 21.862570 15.918536 22.355467
643 215 1 -0.8476 25.906856 26.014970 36.738880
644 215 2 0.4238 26.881062 25.804074 36.658589
645 215 2 0.4238 25.768084 26.998493 36.623018
646 216 1 -0.8476 9.463152 21.862250 8.447621
647 216 2 0.4238 10.371726 21.916041 8.033375
648 216 2 0.4238 9.181963 20.904704 8.511167