LAMMPS data file

1536 atoms
10 atom types
1000 bonds
1 bond types
500 angles
1 angle types

0.000000 31.928625 xlo xhi
0.000000 29.778000 ylo yhi
0.000000 100.000000 zlo zhi

Atoms

1 1 1 -0.8476 7.588225 14.845842 9.713062
2 1 2 0.4238 7.733997 15.377751 8.878901
3 1 2 0.4238 8.423521 14.344605 9.938992
4 2 1 -0.8476 17.554570 12.965691 12.134014
5 2 2 0.4238 16.933960 13.507735 11.567417
6 2 2 0.4238 18.134367 12.400838 11.546839
7 3 1 -0.8476 24.922139 21.803276 39.758256
8 3 2 0.4238 24.598847 22.661672 39.359961
9 3 2 0.4238 24.727886 21.050167 39.129692
10 4 1 -0.8476 14.883035 12.266845 23.231269
11 4 2 0.4238 14.701680 12.984074 22.558444
12 4 2 0.4238 15.242873 11.457558 22.766971
13 5 1 -0.8476 9.963470 20.871724 42.816919
14 5 2 0.4238 10.257294 20.243511 43.537347
15 5 2 0.4238 9.327974 21.542852 43.198670
16 6 1 -0.8476 21.156423 14.183143 42.258377
17 6 2 0.4238 21.082938 15.024364 42.794052
18 6 2 0.4238 21.167503 13.395560 42.874486
19 7 1 -0.8476 15.727766 17.145044 24.823469
20 7 2 0.4238 16.106374 16.947229 23.919297
21 7 2 0.4238 14.908829 17.710499 24.725479
22 8 1 -0.8476 20.818409 17.635892 10.534792
23 8 2 0.4238 20.103589 18.307391 10.339544
24 8 2 0.4238 21.213119 17.309918 9.675754
25 9 1 -0.8476 19.930537 20.206341 7.909891
26 9 2 0.4238 19.238537 20.328076 7.198331
27 9 2 0.4238 20.481023 19.397150 7.704523
28 10 1 -0.8476 17.266803 11.529879 35.563345
29 10 2 0.4238 17.831668 12.287361 35.890682
30 10 2 0.4238 16.437466 11.892136 35.137938
31 11 1 -0.8476 14.094631 5.229116 37.514524
32 11 2 0.4238 13.802367 6.184125 37.564914
33 11 2 0.4238 14.152361 4.948319 36.556495
34 12 1 -0.8476 26.319742 15.375880 39.143237
35 12 2 0.4238 27.302489 15.253010 39.004992
36 12 2 0.4238 25.833055 14.566914 38.813526
37 13 1 -0.8476 24.877110 3.560246 34.582135
38 13 2 0.4238 25.662872 2.953030 34.699891
39 13 2 0.4238 24.947231 4.029156 33.701677
40 14 1 -0.8476 5.218676 9.622986 44.131035
41 14 2 0.4238 5.984936 9.452709 43.511477
42 14 2 0.4238 5.138839 10.605319 44.300295
43 15 1 -0.8476 2.453950 2.279463 43.163890
44 15 2 0.4238 2.022427 3.160604 43.357227
45 15 2 0.4238 3.015854 2.005142 43.944283
46 16 1 -0.8476 15.874735 25.830669 24.290100
47 16 2 0.4238 15.053741 25.447917 23.866460
48 16 2 0.4238 16.220514 26.581975 23.727984
49 17 1 -0.8476 10.666132 22.838085 37.199985
50 17 2 0.4238 11.611164 23.147270 37.306382
51 17 2 0.4238 10.657341 21.862615 36.980030
52 18 1 -0.8476 9.252770 16.855771 9.974109
53 18 2 0.4238 9.004583 16.312104 10.775876
54 18 2 0.4238 10.233858 16.767181 9.802012
55 19 1 -0.8476 16.190731 19.988958 44.504560
56 19 2 0.4238 15.876394 19.152289 44.953089
57 19 2 0.4238 17.186444 19.965304 44.415130
58 20 1 -0.8476 8.404336 26.312368 18.446619
59 20 2 0.4238 8.351765 25.631219 19.176874
60 20 2 0.4238 7.690216 26.999605 18.579801
61 21 1 -0.8476 14.852962 12.301966 5.516378
62 21 2 0.4238 15.211028 13.178783 5.837286
63 21 2 0.4238 15.132258 11.577237 6.146268
64 22 1 -0.8476 9.312464 25.179479 8.429552
65 22 2 0.4238 9.548727 25.587293 9.311521
66 22 2 0.4238 8.387442 25.457658 8.170804
67 23 1 -0.8476 17.284449 19.002537 16.650084
68 23 2 0.4238 16.648409 18.281968 16.373980
69 23 2 0.4238 17.840707 19.274929 15.864984
70 24 1 -0.8476 4.362312 8.578521 14.521237
71 24 2 0.4238 3.716176 8.923658 13.840510
72 24 2 0.4238 4.396213 9.207745 15.297722
73 25 1 -0.8476 8.069816 20.724510 36.362510
74 25 2 0.4238 7.748877 19.804587 36.137255
75 25 2 0.4238 7.799618 20.952022 37.298048
76 26 1 -0.8476 4.624974 17.157624 25.099980
77 26 2 0.4238 4.995125 17.944211 25.594216
78 26 2 0.4238 4.148964 16.555267 25.740746
79 27 1 -0.8476 5.180101 22.954206 21.921281
80 27 2 0.4238 4.355803 22.841523 21.366451
81 27 2 0.4238 5.925814 22.420424 21.522546
82 28 1 -0.8476 19.024929 11.186886 14.626698
83 28 2 0.4238 18.727252 11.926661 14.023273
84 28 2 0.4238 18.543968 11.255734 15.500733
85 29 1 -0.8476 25.519324 2.000772 22.826221
86 29 2 0.4238 26.482032 2.216841 22.663409
87 29 2 0.4238 25.096741 2.738120 23.353234
88 30 1 -0.8476 28.648067 3.383128 28.454175
89 30 2 0.4238 28.978954 2.500516 28.788108
90 30 2 0.4238 27.976990 3.752414 29.097045
91 31 1 -0.8476 11.528778 9.006586 39.621387
92 31 2 0.4238 11.335487 9.183748 38.656373
93 31 2 0.4238 11.997657 9.795909 40.017774
94 32 1 -0.8476 6.334865 21.311656 16.568392
95 32 2 0.4238 5.545253 21.209702 17.173468
96 32 2 0.4238 7.163584 21.420602 17.117352
97 33 1 -0.8476 28.549429 25.137428 37.478498
98 33 2 0.4238 27.738652 25.627884 37.158976
99 33 2 0.4238 28.934204 24.603435 36.725636
100 34 1 -0.8476 23.109933 3.979271 28.802415
101 34 2 0.4238 22.316384 3.802011 29.384531
102 34 2 0.4238 22.837352 3.925265 27.841799
103 35 1 -0.8476 3.979206 25.355420 13.247064
104 35 2 0.4238 4.580529 26.115929 13.002038
105 35 2 0.4238 4.245943 24.540475 12.732558
106 36 1 -0.8476 8.947188 8.915446 34.405877
107 36 2 0.4238 8.056880 9.253643 34.100958
108 36 2 0.4238 8.858553 7.964880 34.703481
109 37 1 -0.8476 21.604192 15.040489 15.929641
110 37 2 0.4238 20.838305 14.586502 15.474325
111 37 2 0.4238 21.265656 15.825541 16.448376
112 38 1 -0.8476 19.276515 5.932539 26.716451
113 38 2 0.4238 18.466721 6.488871 26.530095
114 38 2 0.4238 19.576661 5.487658 25.872653
115 39 1 -0.8476 7.346237 5.215038 28.847268
116 39 2 0.4238 7.019857 5.952814 29.438168
117 39 2 0.4238 7.625773 4.436680 29.409423
118 40 1 -0.8476 19.809302 18.510019 20.543156
119 40 2 0.4238 19.085116 18.383635 19.865232
120 40 2 0.4238 19.857680 17.704219 21.133366
121 41 1 -0.8476 18.179930 18.584836 31.717902
122 41 2 0.4238 17.691218 18.994364 32.488258
123 41 2 0.4238 19.094077 18.984907 31.652483
124 42 1 -0.8476 4.118888 4.139008 26.869398
125 42 2 0.4238 4.348663 5.001713 26.418905
126 42 2 0.4238 3.666235 4.328233 27.740775
127 43 1 -0.8476 6.121894 16.894145 28.961302
128 43 2 0.4238 5.847471 16.247548 29.673064
129 43 2 0.4238 7.051724 17.214442 29.142484
130 44 1 -0.8476 23.989307 2.000836 31.893027
131 44 2 0.4238 24.697090 2.055485 31.188714
132 44 2 0.4238 23.439308 2.835872 31.878353
133 45 1 -0.8476 26.821587 25.484521 18.101576
134 45 2 0.4238 26.700605 26.010974 17.260023
135 45 2 0.4238 26.198672 25.830116 18.803389
136 46 1 -0.8476 20.777946 7.625146 20.228775
137 46 2 0.4238 20.049439 7.232396 20.790045
138 46 2 0.4238 21.505280 7.971431 20.821289
139 47 1 -0.8476 7.251912 17.113899 39.289022
140 47 2 0.4238 8.126587 17.207816 39.764545
141 47 2 0.4238 6.519686 16.991814 39.959052
142 48 1 -0.8476 18.973049 16.148914 28.639710
143 48 2 0.4238 18.459024 16.211706 29.495184
144 48 2 0.4238 18.612083 15.396739 28.088405
145 49 1 -0.8476 9.531460 19.703868 39.949644
146 49 2 0.4238 9.532045 18.886325 40.525513
147 49 2 0.4238 9.130091 20.467507 40.455369
148 50 1 -0.8476 6.643284 7.142075 36.795156
149 50 2 0.4238 7.131929 7.404879 35.963194
150 50 2 0.4238 5.706614 6.879994 36.562857
151 51 1 -0.8476 9.085666 3.758924 33.433515
152 51 2 0.4238 8.433298 3.124959 33.848853
153 51 2 0.4238 9.064036 3.655464 32.439116
154 52 1 -0.8476 9.357356 3.281189 37.909024
155 52 2 0.4238 9.541818 2.824453 37.038755
156 52 2 0.4238 8.384687 3.505775 37.967987
157 53 1 -0.8476 14.090920 7.730763 39.935339
158 53 2 0.4238 13.804964 8.571819 40.394528
159 53 2 0.4238 14.344289 7.046999 40.619643
160 54 1 -0.8476 2.485326 23.311481 25.621147
161 54 2 0.4238 2.293870 22.331600 25.564779
162 54 2 0.4238 2.017273 23.697355 26.416149
163 55 1 -0.8476 19.329137 19.294733 42.510433
164 55 2 0.4238 20.021961 18.615302 42.268839
165 55 2 0.4238 19.487686 19.614863 43.444446
166 56 1 -0.8476 17.007495 22.064871 32.743039
167 56 2 0.4238 17.201343 21.359437 32.061286
168 56 2 0.4238 16.035415 22.297785 32.714539
169 57 1 -0.8476 15.701806 11.638572 8.300092
170 57 2 0.4238 15.055724 11.100218 8.841159
171 57 2 0.4238 16.577140 11.157580 8.250713
172 58 1 -0.8476 19.542452 6.345288 35.867748
173 58 2 0.4238 19.015136 7.090727 36.275497
174 58 2 0.4238 19.605765 6.483569 34.879381
175 59 1 -0.8476 8.894028 13.627084 38.551556
176 59 2 0.4238 8.148328 13.899156 39.159756
177 59 2 0.4238 9.715426 13.445014 39.092070
178 60 1 -0.8476 15.466622 24.577366 14.636294
179 60 2 0.4238 15.240830 25.549340 14.701759
180 60 2 0.4238 16.452132 24.472352 14.503095
181 61 1 -0.8476 22.507886 2.787040 19.798047
182 61 2 0.4238 23.421156 2.920586 20.182890
183 61 2 0.4238 22.578019 2.664400 18.808076
184 62 1 -0.8476 23.660808 8.316983 18.212623
185 62 2 0.4238 23.072127 8.697071 18.926057
186 62 2 0.4238 24.605872 8.291991 18.538552
187 63 1 -0.8476 3.592571 13.407184 29.630711
188 63 2 0.4238 3.826845 12.944727 30.485842
189 63 2 0.4238 4.384757 13.921352 29.301967
190 64 1 -0.8476 13.867975 10.302058 34.523505
191 64 2 0.4238 13.402597 9.582484 35.038906
192 64 2 0.4238 14.833809 10.065232 34.418251
193 65 1 -0.8476 17.484342 17.377703 42.157256
194 65 2 0.4238 16.828138 18.066839 42.464646
195 65 2 0.4238 17.038934 16.482844 42.128271
196 66 1 -0.8476 16.101899 3.264430 8.782733
197 66 2 0.4238 16.360041 2.304531 8.673385
198 66 2 0.4238 16.146568 3.724683 7.896070
199 67 1 -0.8476 18.871491 4.843155 16.363872
200 67 2 0.4238 19.791005 4.575678 16.651882
201 67 2 0.4238 18.933790 5.587352 15.698822
202 68 1 -0.8476 11.460777 21.190606 39.833741
203 68 2 0.4238 12.372425 21.416420 40.177116
204 68 2 0.4238 11.176572 21.878105 39.165480
205 69 1 -0.8476 12.435954 8.600954 12.056532
206 69 2 0.4238 12.773514 7.668252 12.183502
207 69 2 0.4238 12.891868 9.211478 12.704145
208 70 1 -0.8476 8.324919 9.545349 38.640450
209 70 2 0.4238 9.045012 8.952819 39.001524
210 70 2 0.4238 7.838121 9.978515 39.398998
211 71 1 -0.8476 25.384844 11.870039 10.436352
212 71 2 0.4238 25.959263 12.179612 9.678587
213 71 2 0.4238 25.684141 12.310207 11.282918
214 72 1 -0.8476 19.873892 25.700105 22.032713
215 72 2 0.4238 19.434100 25.807772 21.141090
216 72 2 0.4238 20.341091 26.549365 22.278645
217 73 1 -0.8476 26.707950 22.069243 29.985526
218 73 2 0.4238 26.289216 22.115913 30.892435
219 73 2 0.4238 27.445860 21.394390 29.993435
220 74 1 -0.8476 22.351392 11.005429 36.042837
221 74 2 0.4238 22.131527 11.939900 35.762793
222 74 2 0.4238 22.154435 10.376910 35.290393
223 75 1 -0.8476 17.554557 20.269226 34.403641
224 75 2 0.4238 17.562976 21.049378 35.029175
225 75 2 0.4238 16.628803 19.894912 34.350093
226 76 1 -0.8476 5.864901 11.995841 39.596571
227 76 2 0.4238 6.136727 12.751836 39.001103
228 76 2 0.4238 5.852415 12.307744 40.546603
229 77 1 -0.8476 5.793264 18.689030 38.385493
230 77 2 0.4238 6.342566 18.904464 37.578118
231 77 2 0.4238 4.979932 18.177421 38.108458
232 78 1 -0.8476 13.856858 21.025506 21.717995
233 78 2 0.4238 14.628402 21.498179 22.143788
234 78 2 0.4238 13.928431 20.043929 21.895151
235 79 1 -0.8476 18.792025 21.055942 29.847120
236 79 2 0.4238 19.285336 21.638837 30.492781
237 79 2 0.4238 19.269669 20.182263 29.754697
238 80 1 -0.8476 27.123897 13.514650 25.244700
239 80 2 0.4238 27.006387 14.422154 24.841429
240 80 2 0.4238 27.145842 12.827507 24.518508
241 81 1 -0.8476 12.408094 26.134322 14.131690
242 81 2 0.4238 12.571482 25.458911 13.412576
243 81 2 0.4238 11.430180 26.172447 14.337196
244 82 1 -0.8476 7.811412 4.068164 18.170026
245 82 2 0.4238 6.932906 4.334563 18.566584
246 82 2 0.4238 8.483197 3.945019 18.900465
247 83 1 -0.8476 4.690265 5.571194 41.913978
248 83 2 0.4238 5.144583 6.296352 41.396542
249 83 2 0.4238 4.210161 4.961981 41.282820
250 84 1 -0.8476 2.445519 25.716278 8.187268
251 84 2 0.4238 2.660015 26.567946 7.709090
252 84 2 0.4238 2.003954 25.080608 7.554067
253 85 1 -0.8476 20.789035 4.830048 8.139380
254 85 2 0.4238 20.516452 4.273543 8.924238
255 85 2 0.4238 19.972817 5.171548 7.673369
256 86 1 -0.8476 22.978831 10.358359 15.789888
257 86 2 0.4238 23.073378 11.054954 16.501096
258 86 2 0.4238 22.702814 9.492123 16.206363
259 87 1 -0.8476 8.041771 2.583244 23.085472
260 87 2 0.4238 8.393925 2.720485 24.011298
261 87 2 0.4238 7.112481 2.216993 23.133220
262 88 1 -0.8476 3.941489 6.347680 29.525222
263 88 2 0.4238 4.225650 6.468633 28.574106
264 88 2 0.4238 3.578722 5.424169 29.649839
265 89 1 -0.8476 23.826350 6.371048 44.085557
266 89 2 0.4238 23.715826 5.926498 44.974466
267 89 2 0.4238 24.494711 5.864841 43.540535
268 90 1 -0.8476 23.662465 4.000576 8.181681
269 90 2 0.4238 23.444489 3.037787 8.341444
270 90 2 0.4238 23.418197 4.536208 8.990033
271 91 1 -0.8476 12.264151 26.579153 22.888033
272 91 2 0.4238 13.190291 26.208495 22.957871
273 91 2 0.4238 11.644380 26.036663 23.455122
274 92 1 -0.8476 6.469103 2.872054 43.904894
275 92 2 0.4238 6.887827 2.003899 44.171310
276 92 2 0.4238 6.542404 3.523165 44.660329
277 93 1 -0.8476 26.736598 16.870660 23.626319
278 93 2 0.4238 27.150146 17.584329 24.191700
279 93 2 0.4238 26.049891 17.278344 23.024466
280 94 1 -0.8476 7.990269 7.298607 30.965084
281 94 2 0.4238 8.982938 7.348655 31.075105
282 94 2 0.4238 7.577363 6.965256 31.812661
283 95 1 -0.8476 13.887237 19.681029 16.011946
284 95 2 0.4238 14.744086 20.019858 16.400539
285 95 2 0.4238 14.076124 18.895527 15.422618
286 96 1 -0.8476 4.575463 14.529511 11.582953
287 96 2 0.4238 5.562162 14.675552 11.654349
288 96 2 0.4238 4.180951 15.212935 10.968711
289 97 1 -0.8476 22.681280 20.031421 10.519781
290 97 2 0.4238 23.391054 19.881787 9.831427
291 97 2 0.4238 21.793734 20.124584 10.068580
292 98 1 -0.8476 3.914129 21.471228 26.879589
293 98 2 0.4238 3.333536 20.699134 26.621164
294 98 2 0.4238 4.795704 21.395982 26.413580
295 99 1 -0.8476 2.924420 2.399140 10.407564
296 99 2 0.4238 2.052263 2.461233 9.922295
297 99 2 0.4238 3.668080 2.304420 9.745749
298 100 1 -0.8476 14.320601 10.725507 29.102532
299 100 2 0.4238 14.140675 10.511318 30.062610
300 100 2 0.4238 15.064845 10.148511 28.766114
301 101 1 -0.8476 24.835052 3.509261 11.088197
302 101 2 0.4238 25.020952 4.491481 11.114374
303 101 2 0.4238 23.894699 3.355986 10.784480
304 102 1 -0.8476 3.997208 26.841182 24.558372
305 102 2 0.4238 4.858811 26.993960 24.074327
306 102 2 0.4238 3.231849 26.998731 23.934350
307 103 1 -0.8476 2.670777 24.275110 16.476186
308 103 2 0.4238 2.000526 23.573952 16.232997
309 103 2 0.4238 2.772857 24.916606 15.715881
310 104 1 -0.8476 28.551050 21.096117 23.985357
311 104 2 0.4238 28.999538 21.827799 23.472034
312 104 2 0.4238 27.566697 21.121618 23.811001
313 105 1 -0.8476 27.555467 26.026683 20.530361
314 105 2 0.4238 27.734679 25.477824 21.346839
315 105 2 0.4238 27.624295 26.997594 20.759695
316 106 1 -0.8476 11.278186 20.467348 34.781682
317 106 2 0.4238 10.295443 20.633409 34.863163
318 106 2 0.4238 11.431356 19.576330 34.354334
319 107 1 -0.8476 27.924110 3.452419 25.698623
320 107 2 0.4238 28.682033 3.743823 26.282264
321 107 2 0.4238 27.202800 3.052332 26.263993
322 108 1 -0.8476 24.056944 15.087698 36.519453
323 108 2 0.4238 23.946749 15.626727 37.354502
324 108 2 0.4238 23.187957 14.650367 36.287928
325 109 1 -0.8476 15.515041 9.587903 36.926208
326 109 2 0.4238 14.795443 10.279536 36.864362
327 109 2 0.4238 15.104459 8.676456 36.899993
328 110 1 -0.8476 18.718329 17.176350 17.559305
329 110 2 0.4238 19.518311 16.955812 18.117330
330 110 2 0.4238 17.987887 17.524631 18.146805
331 111 1 -0.8476 28.030642 23.240466 25.031736
332 111 2 0.4238 28.594462 24.057650 25.151398
333 111 2 0.4238 27.493574 23.081824 25.860223
334 112 1 -0.8476 6.456014 20.194589 19.026216
335 112 2 0.4238 6.039265 19.357083 19.379634
336 112 2 0.4238 6.419116 20.906760 19.727252
337 113 1 -0.8476 25.690192 21.085019 19.493414
338 113 2 0.4238 25.606852 21.261652 18.512672
339 113 2 0.4238 26.559586 21.451071 19.825319
340 114 1 -0.8476 5.412382 9.103947 8.373398
341 114 2 0.4238 5.410964 9.891417 7.757046
342 114 2 0.4238 4.662702 8.488628 8.129753
343 115 1 -0.8476 3.970165 3.999021 43.669961
344 115 2 0.4238 4.415719 4.064237 44.562837
345 115 2 0.4238 4.631070 3.681293 42.990069
346 116 1 -0.8476 2.874872 7.859031 37.732487
347 116 2 0.4238 3.752308 7.858700 38.212181
348 116 2 0.4238 2.173205 8.260115 38.321380
349 117 1 -0.8476 5.833792 11.767387 19.634218
350 117 2 0.4238 6.388497 12.433180 19.135197
351 117 2 0.4238 5.361978 12.224810 20.387979
352 118 1 -0.8476 13.492426 21.469324 13.863766
353 118 2 0.4238 13.197039 21.397828 14.816465
354 118 2 0.4238 12.690311 21.495414 13.267166
355 119 1 -0.8476 21.872791 3.489288 16.278251
356 119 2 0.4238 22.292198 4.152630 16.897989
357 119 2 0.4238 21.291452 2.865871 16.801125
358 120 1 -0.8476 13.275665 21.599106 36.383799
359 120 2 0.4238 13.590357 22.132284 37.169096
360 120 2 0.4238 13.434343 20.626884 36.555863
361 121 1 -0.8476 14.712347 3.104914 5.627175
362 121 2 0.4238 14.415520 2.229807 6.009382
363 121 2 0.4238 14.067890 3.821229 5.894699
364 122 1 -0.8476 16.797025 9.833935 17.847857
365 122 2 0.4238 16.316309 10.492861 18.426415
366 122 2 0.4238 17.675049 10.218650 17.563132
367 123 1 -0.8476 3.578548 9.490711 40.875989
368 123 2 0.4238 2.636925 9.190629 41.028627
369 123 2 0.4238 3.913179 9.112402 40.012910
370 124 1 -0.8476 15.733291 15.785504 17.353372
371 124 2 0.4238 15.713776 16.706805 17.741734
372 124 2 0.4238 16.491918 15.712713 16.705925
373 125 1 -0.8476 17.105430 16.946312 12.515251
374 125 2 0.4238 17.556759 16.316852 11.882730
375 125 2 0.4238 16.350422 16.475679 12.971835
376 126 1 -0.8476 5.831216 3.593670 40.641783
377 126 2 0.4238 5.442217 3.780243 39.739635
378 126 2 0.4238 6.646699 4.156664 40.776049
379 127 1 -0.8476 20.501144 16.248883 13.168447
380 127 2 0.4238 21.488942 16.404017 13.154699
381 127 2 0.4238 20.074165 16.752529 12.417427
382 128 1 -0.8476 18.416613 14.494112 32.602730
383 128 2 0.4238 18.701029 15.205374 33.245546
384 128 2 0.4238 17.417948 14.452489 32.572130
385 129 1 -0.8476 3.491308 6.066918 35.063969
386 129 2 0.4238 4.133718 6.832068 35.020905
387 129 2 0.4238 3.774903 5.356921 34.419393
388 130 1 -0.8476 6.525505 14.665098 26.915590
389 130 2 0.4238 6.129929 14.271126 27.745232
390 130 2 0.4238 6.654304 15.648640 27.042304
391 131 1 -0.8476 12.693356 12.577323 11.150428
392 131 2 0.4238 13.243306 11.854783 11.569346
393 131 2 0.4238 12.844276 13.436730 11.638940
394 132 1 -0.8476 13.858985 26.437754 34.813371
395 132 2 0.4238 14.766959 26.455154 35.232037
396 132 2 0.4238 13.161550 26.432768 35.530002
397 133 1 -0.8476 17.715059 19.255653 27.442680
398 133 2 0.4238 17.601886 19.711649 28.325437
399 133 2 0.4238 16.885787 19.375554 26.896848
400 134 1 -0.8476 10.187621 10.502835 14.204740
401 134 2 0.4238 10.889953 10.549141 14.915082
402 134 2 0.4238 10.362409 11.207220 13.516778
403 135 1 -0.8476 23.737382 5.557030 17.780667
404 135 2 0.4238 24.519766 5.933267 18.276975
405 135 2 0.4238 22.899898 6.010589 18.085471
406 136 1 -0.8476 6.487985 6.908355 21.922751
407 136 2 0.4238 6.503124 7.507419 21.122193
408 136 2 0.4238 5.570135 6.905584 22.319670
409 137 1 -0.8476 11.225554 17.145054 39.195299
410 137 2 0.4238 10.372047 16.699446 39.465410
411 137 2 0.4238 11.938232 16.933402 39.864098
412 138 1 -0.8476 15.055419 16.139700 20.039775
413 138 2 0.4238 14.842460 15.419940 19.379023
414 138 2 0.4238 15.868709 15.882855 20.561878
415 139 1 -0.8476 28.028965 19.801168 12.321808
416 139 2 0.4238 27.912953 19.674659 11.336649
417 139 2 0.4238 28.999638 19.920487 12.530511
418 140 1 -0.8476 28.489290 11.230849 37.658500
419 140 2 0.4238 28.989590 11.829009 38.284524
420 140 2 0.4238 28.823065 11.370181 36.726201
421 141 1 -0.8476 7.281884 22.008380 24.592570
422 141 2 0.4238 6.411602 22.069758 25.081286
423 141 2 0.4238 7.111117 22.001882 23.607280
424 142 1 -0.8476 12.981614 12.515404 14.873415
425 142 2 0.4238 13.073325 12.696449 13.894225
426 142 2 0.4238 12.396341 13.212327 15.287849
427 143 1 -0.8476 5.552420 21.570917 29.396932
428 143 2 0.4238 5.518531 20.909736 28.647472
429 143 2 0.4238 5.615846 22.496054 29.022634
430 144 1 -0.8476 4.026518 23.236944 40.062176
431 144 2 0.4238 3.392365 23.167741 39.292071
432 144 2 0.4238 3.584870 22.890550 40.889798
433 145 1 -0.8476 20.362166 8.821894 43.117847
434 145 2 0.4238 20.926007 9.490598 42.633163
435 145 2 0.4238 19.519680 8.661142 42.603672
436 146 1 -0.8476 17.011416 16.697837 31.131920
437 146 2 0.4238 16.266251 16.061901 31.332704
438 146 2 0.4238 17.834149 16.413280 31.623997
439 147 1 -0.8476 7.342752 16.951542 16.842175
440 147 2 0.4238 7.020105 17.388597 16.002602
441 147 2 0.4238 7.686982 16.036783 16.630695
442 148 1 -0.8476 20.114149 24.921625 33.947638
443 148 2 0.4238 20.562555 25.616452 34.509909
444 148 2 0.4238 19.202878 25.240693 33.687286
445 149 1 -0.8476 7.569295 20.334716 26.824561
446 149 2 0.4238 6.694976 20.285617 26.341698
447 149 2 0.4238 8.305561 20.489916 26.165906
448 150 1 -0.8476 23.999644 22.841796 36.692635
449 150 2 0.4238 24.656777 22.258946 37.170612
450 150 2 0.4238 24.335788 23.783542 36.681535
451 151 1 -0.8476 27.258118 4.489108 23.058966
452 151 2 0.4238 26.706322 5.182996 22.596319
453 151 2 0.4238 28.027482 4.230970 22.474634
454 152 1 -0.8476 3.029082 20.390087 15.607253
455 152 2 0.4238 3.283332 21.308278 15.911034
456 152 2 0.4238 2.464723 20.455614 14.784328
457 153 1 -0.8476 7.889561 25.803727 44.732631
458 153 2 0.4238 8.461721 26.613864 44.604916
459 153 2 0.4238 7.029647 25.921312 44.235920
460 154 1 -0.8476 15.101402 22.641479 35.510985
461 154 2 0.4238 15.639361 22.406529 36.320552
462 154 2 0.4238 15.431643 23.505301 35.130520
463 155 1 -0.8476 10.941174 11.255910 31.112281
464 155 2 0.4238 10.487369 11.688989 30.333497
465 155 2 0.4238 11.682693 11.844010 31.435219
466 156 1 -0.8476 26.674555 19.681575 16.863175
467 156 2 0.4238 27.203294 19.004998 17.375696
468 156 2 0.4238 25.758734 19.322416 16.683514
469 157 1 -0.8476 26.963225 14.775925 18.627195
470 157 2 0.4238 27.422332 14.846495 19.512769
471 157 2 0.4238 25.977923 14.892176 18.752361
472 158 1 -0.8476 28.191553 6.703154 36.201005
473 158 2 0.4238 28.959819 6.085386 36.368724
474 158 2 0.4238 27.445818 6.197509 35.767181
475 159 1 -0.8476 23.768805 26.513677 24.153190
476 159 2 0.4238 22.799756 26.704451 23.996508
477 159 2 0.4238 23.956116 25.552311 23.951473
478 160 1 -0.8476 14.141560 6.219832 6.702233
479 160 2 0.4238 13.949523 6.740887 7.533872
480 160 2 0.4238 14.815369 6.710403 6.149673
481 161 1 -0.8476 25.260009 10.034885 20.124501
482 161 2 0.4238 25.658337 10.292987 19.244320
483 161 2 0.4238 25.840559 10.373186 20.865119
484 162 1 -0.8476 25.840338 8.922550 27.743293
485 162 2 0.4238 26.664459 8.779737 28.291408
486 162 2 0.4238 25.466896 8.037302 27.466025
487 163 1 -0.8476 26.448993 26.025298 7.162534
488 163 2 0.4238 25.649263 25.715794 7.676965
489 163 2 0.4238 27.192191 26.236871 7.797272
490 164 1 -0.8476 3.537340 17.323630 9.828808
491 164 2 0.4238 2.641198 16.984726 9.542320
492 164 2 0.4238 4.094832 17.515725 9.021156
493 165 1 -0.8476 14.871906 8.370433 14.774226
494 165 2 0.4238 14.234198 7.810709 14.245040
495 165 2 0.4238 15.649714 8.623614 14.198974
496 166 1 -0.8476 2.327832 15.153639 13.517791
497 166 2 0.4238 2.017943 14.203890 13.473671
498 166 2 0.4238 2.777465 15.397790 12.658593
499 167 1 -0.8476 7.112255 23.714232 20.196482
500 167 2 0.4238 7.852831 23.493350 19.561849
501 167 2 0.4238 6.313443 24.024975 19.681371
502 168 1 -0.8476 5.653028 19.536339 43.982925
503 168 2 0.4238 5.421640 19.935688 44.870044
504 168 2 0.4238 6.546683 19.874593 43.688025
505 169 1 -0.8476 3.306621 3.108126 38.863517
506 169 2 0.4238 2.668945 2.687013 38.218510
507 169 2 0.4238 3.724270 2.398345 39.430774
508 170 1 -0.8476 17.207477 8.283361 26.332141
509 170 2 0.4238 17.008539 8.240580 27.311219
510 170 2 0.4238 16.864630 9.145779 25.959727
511 171 1 -0.8476 3.327735 17.042619 22.243289
512 171 2 0.4238 3.749167 16.714654 23.088768
513 171 2 0.4238 2.456007 17.484516 22.454991
514 172 1 -0.8476 8.873494 2.005438 26.066096
515 172 2 0.4238 9.401600 2.535002 26.729923
516 172 2 0.4238 7.910506 2.269683 26.119293
517 173 1 -0.8476 17.706607 4.214777 21.284286
518 173 2 0.4238 17.606126 5.024554 21.862356
519 173 2 0.4238 18.676499 3.989414 21.191975
520 174 1 -0.8476 6.620991 4.028740 27.069227
521 174 2 0.4238 6.157921 3.197853 27.377763
522 174 2 0.4238 6.595379 4.073323 26.070550
523 175 1 -0.8476 8.752896 14.579697 19.406531
524 175 2 0.4238 8.542527 13.615659 19.568939
525 175 2 0.4238 7.911039 15.117251 19.454624
526 176 1 -0.8476 15.176445 17.550823 38.548522
527 176 2 0.4238 14.906293 16.731749 39.054621
528 176 2 0.4238 15.081045 18.353229 39.137627
529 177 1 -0.8476 19.168712 4.049867 27.963644
530 177 2 0.4238 19.467175 3.637982 28.824615
531 177 2 0.4238 18.233860 4.390555 28.063569
532 178 1 -0.8476 23.019854 12.188708 5.000644
533 178 2 0.4238 23.162617 12.972696 5.604782
534 178 2 0.4238 22.899491 11.361979 5.550218
535 179 1 -0.8476 20.407473 11.455688 16.785504
536 179 2 0.4238 19.823605 12.069864 17.316435
537 179 2 0.4238 20.876579 10.824755 17.403455
538 180 1 -0.8476 16.056288 8.921384 23.334103
539 180 2 0.4238 15.539701 9.350454 24.075074
540 180 2 0.4238 15.899064 7.933899 23.346479
541 181 1 -0.8476 22.411458 18.082637 6.018796
542 181 2 0.4238 23.312671 18.230833 5.611544
543 181 2 0.4238 21.703415 18.383088 5.379730
544 182 1 -0.8476 6.450687 26.139365 21.307161
545 182 2 0.4238 6.813232 26.939370 21.785234
546 182 2 0.4238 6.302356 25.398492 21.962223
547 183 1 -0.8476 2.018672 15.729341 30.223800
548 183 2 0.4238 2.002618 16.722541 30.339108
549 183 2 0.4238 2.818565 15.469482 29.682833
550 184 1 -0.8476 8.797961 17.519090 25.188893
551 184 2 0.4238 8.362455 16.691598 25.543282
552 184 2 0.4238 9.164794 18.054605 25.949589
553 185 1 -0.8476 5.230328 18.600882 12.665659
554 185 2 0.4238 6.020599 18.033459 12.434349
555 185 2 0.4238 4.398133 18.048387 12.618751
556 186 1 -0.8476 21.808960 7.484119 15.464597
557 186 2 0.4238 22.509774 7.300819 16.153988
558 186 2 0.4238 20.934912 7.661645 15.916843
559 187 1 -0.8476 14.379144 3.504878 34.903937
560 187 2 0.4238 15.127983 3.307593 34.271230
561 187 2 0.4238 14.066259 2.653902 35.325769
562 188 1 -0.8476 27.494826 18.279539 43.543254
563 188 2 0.4238 26.945090 18.758130 44.227900
564 188 2 0.4238 28.246175 17.799051 43.995588
565 189 1 -0.8476 13.344097 4.829760 15.542837
566 189 2 0.4238 12.552839 4.249766 15.349139
567 189 2 0.4238 13.416664 5.539468 14.842089
568 190 1 -0.8476 7.546036 19.582482 32.827641
569 190 2 0.4238 7.302380 20.423676 32.344916
570 190 2 0.4238 8.459643 19.677716 33.222930
571 191 1 -0.8476 28.487944 23.364589 19.431653
572 191 2 0.4238 27.776228 23.588825 20.097370
573 191 2 0.4238 28.998198 22.564115 19.746110
574 192 1 -0.8476 6.601015 15.278992 36.590241
575 192 2 0.4238 7.442967 15.084016 37.093334
576 192 2 0.4238 6.061732 15.955116 37.092268
577 193 1 -0.8476 12.316009 9.563700 32.466213
578 193 2 0.4238 12.047064 9.996076 33.326864
579 193 2 0.4238 13.047144 10.096289 32.039844
580 194 1 -0.8476 23.540469 21.777705 19.067495
581 194 2 0.4238 23.166174 21.352621 19.891635
582 194 2 0.4238 23.153229 21.334915 18.258802
583 195 1 -0.8476 24.198602 11.454906 34.501848
584 195 2 0.4238 24.807464 10.866052 35.033390
585 195 2 0.4238 24.290846 12.399816 34.815914
586 196 1 -0.8476 2.745848 9.371618 20.216856
587 196 2 0.4238 3.031144 8.678759 19.554622
588 196 2 0.4238 2.339988 10.147387 19.733678
589 197 1 -0.8476 18.239917 17.368862 22.724683
590 197 2 0.4238 18.252872 18.266739 23.164738
591 197 2 0.4238 18.729207 16.710342 23.296476
592 198 1 -0.8476 14.097288 17.185858 22.552778
593 198 2 0.4238 14.057827 16.380471 23.144212
594 198 2 0.4238 13.220231 17.300017 22.086152
595 199 1 -0.8476 26.520419 13.876049 33.286983
596 199 2 0.4238 27.124638 13.546140 34.012297
597 199 2 0.4238 26.913961 14.696838 32.872941
598 200 1 -0.8476 3.130606 10.305111 16.724643
599 200 2 0.4238 3.585202 9.626714 17.301808
600 200 2 0.4238 2.582267 10.915401 17.296369
601 201 1 -0.8476 13.082939 22.916883 42.567399
602 201 2 0.4238 12.402790 22.344345 43.025216
603 201 2 0.4238 13.473816 22.416798 41.794657
604 202 1 -0.8476 27.090757 3.856526 38.824599
605 202 2 0.4238 26.417343 3.924896 38.088501
606 202 2 0.4238 27.872127 3.316170 38.512387
607 203 1 -0.8476 17.741690 11.288347 20.298757
608 203 2 0.4238 18.340602 11.370137 19.502129
609 203 2 0.4238 17.969551 12.001511 20.961688
610 204 1 -0.8476 19.574555 7.154226 39.023050
611 204 2 0.4238 18.784725 6.918331 38.456903
612 204 2 0.4238 20.352353 7.375138 38.434637
613 205 1 -0.8476 27.651006 15.474469 15.075337
614 205 2 0.4238 26.795302 15.265993 14.601724
615 205 2 0.4238 28.424095 15.215792 14.496183
616 206 1 -0.8476 7.614173 20.163876 15.092623
617 206 2 0.4238 6.825222 20.502766 14.580070
618 206 2 0.4238 7.918509 19.295768 14.700492
619 207 1 -0.8476 21.176961 6.866113 27.762684
620 207 2 0.4238 21.496457 7.668845 27.259152
621 207 2 0.4238 21.953544 6.422280 28.209821
622 208 1 -0.8476 16.223692 24.851090 6.593178
623 208 2 0.4238 15.702368 24.137279 6.125528
624 208 2 0.4238 15.859058 24.980196 7.515335
625 209 1 -0.8476 15.666381 19.909378 12.371077
626 209 2 0.4238 14.908938 19.572217 12.930187
627 209 2 0.4238 16.367803 20.305160 12.963837
628 210 1 -0.8476 27.524934 24.764367 27.839000
629 210 2 0.4238 26.526884 24.818886 27.808592
630 210 2 0.4238 27.844688 25.014058 28.753009
631 211 1 -0.8476 4.214855 24.972915 27.349493
632 211 2 0.4238 5.192899 24.764535 27.346594
633 211 2 0.4238 3.793350 24.582707 28.168072
634 212 1 -0.8476 12.931125 18.008716 10.757023
635 212 2 0.4238 12.197407 17.674861 11.348799
636 212 2 0.4238 13.691053 17.358826 10.769346
637 213 1 -0.8476 3.871715 16.899795 41.346690
638 213 2 0.4238 4.289198 17.730436 41.715124
639 213 2 0.4238 2.876140 16.972487 41.406247
640 214 1 -0.8476 25.997863 15.119797 27.495919
641 214 2 0.4238 26.804555 14.637351 27.154607
642 214 2 0.4238 25.245569 15.012663 26.845860
643 215 1 -0.8476 22.358242 5.071973 21.279270
644 215 2 0.4238 22.747908 4.736375 22.136903
645 215 2 0.4238 21.801318 5.882453 21.460815
646 216 1 -0.8476 14.243289 6.140804 11.414399
647 216 2 0.4238 14.890478 6.157548 10.652253
648 216 2 0.4238 13.409588 5.665464 11.133337
649 217 1 -0.8476 21.567975 17.215825 28.202646